/*--------------------------------*- C++ -*----------------------------------*\
| =========                 |                                                 |
| \\      /  F ield         | OpenFOAM: The Open Source CFD Toolbox           |
|  \\    /   O peration     | Version:  4.1                                   |
|   \\  /    A nd           | Web:      www.OpenFOAM.org                      |
|    \\/     M anipulation  |                                                 |
\*---------------------------------------------------------------------------*/
FoamFile
{
    version     2.0;
    format      ascii;
    class       volScalarField;
    location    "77";
    object      p;
}
// * * * * * * * * * * * * * * * * * * * * * * * * * * * * * * * * * * * * * //

dimensions      [0 2 -2 0 0 0 0];

internalField   nonuniform List<scalar> 
4432
(
100988
100988
100989
100991
100994
100998
101002
101006
101012
101018
101025
101032
101040
101048
101056
101064
101071
101075
101079
101088
101103
101121
101140
101160
101182
101207
101229
101247
101260
101271
101280
101287
101297
101311
101324
101328
101329
101334
101339
101342
101345
101346
101348
101349
101349
101348
101343
101341
101341
101334
101322
101316
101316
101315
100988
100988
100989
100991
100994
100998
101002
101006
101012
101018
101025
101032
101040
101048
101056
101064
101071
101075
101079
101088
101104
101122
101141
101161
101184
101208
101230
101247
101261
101273
101282
101291
101300
101310
101321
101327
101329
101333
101339
101343
101345
101346
101347
101348
101349
101350
101344
101338
101337
101334
101325
101319
101311
101313
100987
100987
100988
100989
100992
100995
100999
101004
101009
101015
101022
101030
101038
101047
101058
101071
101087
101105
101119
101127
101139
101154
101169
101184
101199
101214
101230
101246
101262
101276
101288
101296
101302
101305
101309
101311
101316
101325
101335
101343
101343
101340
101343
101348
101350
101349
101346
101343
101340
101337
101332
101323
101288
101318
100987
100987
100988
100989
100992
100995
100999
101004
101009
101015
101022
101030
101038
101047
101058
101070
101087
101106
101119
101128
101138
101153
101167
101181
101196
101211
101228
101244
101260
101274
101284
101290
101296
101305
101311
101314
101319
101326
101336
101343
101344
101342
101344
101348
101350
101349
101346
101343
101342
101339
101332
101321
101282
101319
100985
100985
100986
100988
100991
100994
100998
101003
101008
101014
101021
101028
101037
101046
101057
101069
101083
101095
101106
101119
101135
101151
101166
101180
101195
101212
101231
101249
101266
101283
101294
101302
101312
101320
101319
101314
101318
101331
101344
101352
101349
101343
101347
101354
101356
101353
101350
101343
101335
101329
101329
101327
101320
101327
100985
100985
100986
100988
100991
100994
100998
101003
101008
101014
101021
101028
101037
101046
101057
101069
101083
101095
101107
101119
101134
101150
101165
101179
101194
101211
101229
101247
101265
101281
101293
101299
101306
101315
101320
101319
101322
101332
101342
101350
101350
101345
101348
101354
101355
101353
101349
101344
101337
101331
101331
101325
101319
101334
100983
100983
100984
100986
100989
100992
100996
101000
101005
101011
101018
101025
101033
101042
101053
101064
101077
101088
101099
101114
101130
101146
101161
101175
101192
101213
101234
101254
101275
101294
101307
101320
101338
101342
101330
101309
101310
101327
101344
101356
101350
101343
101351
101359
101360
101357
101352
101344
101334
101324
101323
101329
101327
101317
100983
100983
100984
100986
100989
100992
100995
101000
101005
101011
101018
101025
101033
101042
101053
101064
101077
101088
101100
101114
101130
101146
101161
101175
101192
101213
101234
101254
101275
101294
101307
101318
101334
101339
101333
101321
101322
101333
101346
101353
101348
101345
101351
101358
101360
101357
101351
101343
101333
101326
101330
101331
101323
101314
100980
100980
100981
100983
100986
100989
100992
100997
101002
101008
101014
101021
101029
101038
101048
101059
101071
101083
101094
101105
101120
101136
101152
101168
101188
101213
101238
101263
101287
101308
101324
101343
101362
101368
101391
101284
101292
101321
101347
101372
101364
101348
101359
101365
101366
101362
101354
101348
101341
101332
101326
101322
101323
101333
100980
100980
100981
100983
100986
100989
100992
100997
101002
101008
101014
101021
101029
101038
101048
101059
101071
101083
101094
101105
101119
101135
101152
101168
101189
101214
101239
101263
101289
101312
101327
101341
101358
101360
101355
101325
101316
101330
101353
101370
101365
101353
101358
101364
101366
101363
101356
101348
101339
101331
101328
101328
101318
101327
100976
100977
100978
100980
100982
100985
100989
100993
100998
101003
101010
101017
101024
101033
101042
101052
101063
101075
101085
101097
101111
101126
101141
101157
101178
101205
101233
101261
101289
101313
101331
101351
101378
101484
101678
101378
101283
101296
101324
101333
101340
101372
101378
101376
101372
101369
101361
101354
101348
101340
101331
101318
101318
101333
100976
100977
100978
100980
100982
100985
100989
100993
100998
101003
101010
101017
101024
101033
101042
101052
101063
101074
101085
101097
101111
101126
101142
101158
101180
101206
101233
101259
101288
101314
101330
101343
101358
101393
101423
101345
101299
101314
101343
101369
101378
101366
101369
101371
101371
101367
101362
101355
101348
101338
101329
101321
101323
101335
100972
100973
100974
100976
100978
100981
100984
100988
100993
100998
101004
101011
101018
101026
101035
101045
101055
101066
101077
101088
101101
101116
101131
101145
101162
101187
101217
101243
101267
101291
101316
101347
101409
101672
101581
101524
101323
101324
101343
101348
101356
101379
101387
101384
101380
101376
101370
101362
101354
101347
101337
101322
101310
101324
100972
100973
100974
100976
100978
100981
100984
100988
100993
100998
101004
101011
101018
101026
101035
101045
101055
101066
101077
101088
101101
101116
101132
101147
101164
101189
101216
101239
101265
101291
101311
101333
101363
101428
101498
101406
101297
101306
101337
101353
101363
101374
101381
101381
101378
101372
101365
101359
101353
101344
101333
101321
101318
101322
100968
100968
100969
100971
100973
100976
100979
100983
100987
100992
100998
101004
101011
101019
101028
101037
101047
101058
101068
101079
101091
101104
101118
101131
101141
101160
101187
101210
101229
101245
101265
101296
101327
101402
101446
101409
101338
101337
101348
101356
101364
101375
101383
101384
101380
101374
101368
101360
101353
101348
101340
101325
101309
101319
100968
100968
100969
100971
100973
100976
100979
100983
100987
100992
100998
101004
101011
101019
101028
101037
101047
101058
101068
101079
101091
101104
101118
101131
101144
101163
101186
101206
101225
101246
101265
101290
101328
101370
101412
101371
101324
101330
101348
101360
101369
101377
101382
101382
101379
101373
101364
101357
101352
101347
101337
101322
101311
101321
100963
100963
100964
100966
100968
100970
100973
100977
100981
100986
100991
100997
101004
101011
101019
101028
101038
101048
101059
101069
101080
101091
101101
101111
101119
101127
101145
101166
101188
101209
101231
101256
101294
101331
101368
101349
101334
101339
101350
101357
101366
101375
101383
101386
101381
101374
101366
101359
101355
101352
101346
101331
101315
101321
100963
100963
100964
100966
100968
100970
100973
100977
100981
100986
100991
100997
101004
101011
101019
101028
101038
101048
101059
101069
101080
101090
101101
101110
101119
101129
101146
101166
101186
101207
101229
101258
101296
101332
101360
101358
101348
101350
101359
101368
101376
101381
101384
101385
101383
101376
101367
101359
101356
101353
101344
101328
101315
101325
100957
100958
100958
100960
100962
100964
100967
100970
100974
100978
100983
100989
100995
101002
101010
101019
101028
101039
101049
101059
101068
101076
101083
101088
101090
101092
101103
101127
101155
101181
101208
101240
101280
101317
101354
101365
101366
101369
101375
101382
101388
101394
101398
101398
101393
101383
101372
101364
101360
101359
101354
101340
101326
101323
100957
100958
100958
100960
100962
100964
100967
100970
100974
100978
100983
100989
100995
101002
101010
101019
101028
101039
101049
101059
101068
101076
101082
101086
101088
101092
101105
101128
101154
101180
101208
101241
101280
101319
101353
101368
101373
101380
101389
101396
101401
101402
101401
101400
101396
101387
101374
101365
101362
101359
101353
101340
101327
101329
100951
100952
100952
100954
100955
100957
100960
100963
100966
100970
100975
100980
100986
100992
101000
101009
101018
101028
101039
101049
101058
101064
101066
101062
101053
101048
101062
101093
101128
101162
101195
101233
101272
101315
101353
101380
101398
101413
101425
101433
101434
101431
101424
101416
101406
101395
101382
101370
101362
101360
101358
101346
101326
101310
100951
100952
100952
100954
100955
100957
100960
100963
100966
100970
100975
100980
100986
100992
101000
101009
101018
101028
101039
101049
101058
101064
101065
101061
101051
101047
101064
101095
101128
101161
101196
101234
101275
101317
101353
101379
101398
101416
101431
101440
101441
101436
101427
101418
101409
101397
101383
101371
101365
101363
101358
101347
101322
101316
100945
100945
100946
100947
100948
100950
100952
100955
100958
100961
100965
100970
100975
100982
100989
100997
101007
101017
101029
101040
101050
101057
101055
101038
101004
100984
101006
101051
101096
101135
101174
101217
101262
101309
101353
101391
101423
101450
101469
101477
101473
101460
101444
101429
101415
101402
101389
101374
101363
101358
101355
101348
101329
101317
100945
100945
100946
100947
100948
100950
100952
100955
100958
100961
100965
100970
100975
100982
100989
100997
101007
101017
101029
101040
101050
101056
101054
101037
101001
100984
101008
101053
101096
101134
101175
101218
101264
101309
101353
101391
101424
101451
101471
101479
101475
101463
101446
101431
101417
101404
101389
101375
101365
101361
101357
101348
101324
101328
100938
100938
100939
100940
100941
100942
100944
100946
100949
100952
100955
100959
100964
100970
100977
100985
100994
101005
101018
101033
101048
101058
101054
101022
100940
100901
100934
101000
101057
101101
101144
101192
101244
101298
101353
101405
101451
101487
101511
101517
101506
101485
101464
101445
101428
101411
101393
101376
101362
101353
101349
101344
101328
101319
100938
100938
100939
100940
100941
100942
100944
100946
100949
100952
100955
100959
100964
100970
100977
100985
100994
101005
101018
101033
101047
101057
101053
101017
100930
100898
100942
101006
101059
101101
101144
101192
101244
101298
101353
101405
101452
101489
101514
101518
101506
101486
101466
101448
101430
101412
101393
101375
101362
101355
101350
101343
101325
101318
100931
100931
100932
100932
100933
100934
100936
100937
100939
100942
100945
100948
100952
100957
100963
100970
100980
100991
101006
101026
101051
101079
101095
101037
100857
100752
100839
100950
101018
101060
101104
101158
101216
101280
101349
101416
101479
101527
101562
101565
101542
101510
101483
101461
101439
101416
101394
101375
101359
101347
101341
101337
101324
101321
100931
100931
100932
100932
100933
100934
100936
100937
100939
100942
100945
100948
100952
100957
100963
100970
100980
100991
101006
101026
101051
101079
101094
101031
100829
100757
100852
100951
101017
101061
101105
101157
101216
101280
101349
101414
101479
101527
101579
101578
101547
101509
101479
101457
101436
101414
101393
101373
101358
101348
101342
101337
101326
101317
100924
100924
100924
100925
100925
100926
100927
100928
100929
100931
100933
100936
100939
100943
100948
100954
100962
100974
100989
101012
101048
101114
101181
101181
100638
100486
100675
100900
100986
101011
101052
101111
101177
101251
101333
101418
101501
101557
101623
101630
101584
101527
101488
101464
101440
101414
101391
101371
101354
101343
101336
101332
101324
101318
100924
100924
100924
100925
100925
100926
100927
100928
100929
100931
100933
100936
100939
100943
100948
100954
100962
100974
100989
101012
101048
101112
101177
101164
100530
100582
100747
100911
100983
101015
101057
101112
101177
101250
101336
101424
101514
101541
101620
101632
101579
101520
101485
101463
101439
101413
101390
101370
101354
101343
101337
101333
101327
101316
100917
100917
100917
100917
100917
100918
100918
100918
100919
100920
100921
100923
100925
100927
100931
100935
100942
100951
100963
100982
101012
101059
101176
101456
100457
100670
100876
100947
100952
100982
101040
101111
101196
101297
101406
101522
101563
101637
101689
101628
101542
101491
101462
101433
101406
101383
101364
101348
101335
101327
101322
101320
101311
100917
100917
100917
100917
100917
100918
100918
100918
100919
100920
100921
100923
100925
100927
100931
100935
100942
100951
100963
100982
101011
101057
101172
101443
100411
100694
100886
100951
100960
100990
101045
101113
101198
101288
101416
101532
101525
101516
101661
101614
101538
101491
101459
101429
101402
101380
101362
101347
101336
101328
101324
101322
101312
100909
100909
100909
100909
100909
100909
100909
100909
100909
100909
100909
100909
100910
100910
100912
100914
100918
100923
100930
100938
100945
100942
100902
100826
100531
100553
100838
100973
100966
100932
100934
100965
101019
101101
101208
101321
101449
101486
101552
101731
101666
101569
101499
101449
101410
101381
101361
101346
101333
101323
101316
101312
101313
101305
100909
100909
100909
100909
100909
100909
100909
100909
100909
100909
100909
100909
100910
100910
100912
100914
100918
100923
100929
100938
100945
100941
100899
100815
100530
100620
100881
100977
100956
100927
100935
100968
101020
101091
101150
101318
101331
101574
101515
101535
101561
101535
101492
101447
101408
101380
101360
101345
101333
101323
101317
101313
101313
101306
100902
100902
100902
100901
100901
100900
100900
100899
100898
100897
100896
100895
100894
100893
100892
100892
100892
100892
100892
100890
100883
100864
100831
100764
100699
100711
100854
100924
100923
100910
100903
100903
100921
100982
101147
101312
101291
101509
101792
101601
101558
101527
101467
101410
101369
101345
101331
101321
101314
101309
101307
101306
101310
101304
100902
100902
100902
100901
100901
100900
100900
100899
100898
100897
100896
100895
100894
100893
100892
100892
100892
100892
100892
100890
100883
100864
100830
100765
100696
100725
100861
100919
100913
100899
100893
100899
100917
100956
101008
101230
101039
101444
101901
100951
101364
101501
101470
101416
101373
101346
101331
101321
101313
101309
101307
101306
101310
101303
100895
100895
100894
100894
100893
100892
100891
100889
100887
100885
100883
100881
100878
100875
100872
100869
100865
100861
100855
100847
100834
100815
100789
100751
100707
100700
100745
100792
100819
100833
100837
100831
100819
100819
100923
101184
102215
101444
100593
100894
101374
101483
101428
101366
101325
101306
101298
101293
101291
101291
101294
101298
101308
101304
100895
100895
100894
100894
100893
100892
100890
100889
100887
100885
100883
100881
100878
100875
100872
100869
100865
100861
100855
100847
100834
100815
100789
100751
100707
100705
100748
100791
100813
100823
100827
100825
100820
100750
100896
101212
101715
99735.4
100200
99677.8
100404
101314
101423
101374
101329
101307
101298
101293
101290
101290
101294
101299
101309
101305
100888
100888
100887
100886
100885
100883
100882
100879
100877
100874
100870
100867
100862
100857
100852
100846
100839
100831
100820
100807
100791
100769
100742
100709
100674
100656
100665
100688
100707
100722
100730
100730
100638
100693
100759
99811.7
99241.6
98911.2
98990.8
99541.6
100419
101229
101346
101283
101259
101255
101256
101259
101263
101268
101275
101283
101296
101297
100888
100888
100887
100886
100885
100883
100882
100879
100877
100874
100870
100867
100862
100857
100852
100846
100839
100831
100820
100807
100791
100769
100742
100709
100675
100658
100667
100688
100705
100717
100728
100736
100750
100773
100709
100318
102344
99531.6
99158.7
99194.3
99821.4
100745
101265
101288
101255
101250
101254
101259
101264
101268
101275
101284
101301
101304
100881
100881
100880
100879
100877
100875
100873
100870
100867
100863
100858
100853
100847
100840
100832
100823
100813
100801
100787
100770
100749
100724
100695
100662
100629
100604
100594
100593
100594
100602
100613
100652
100414
100634
101096
100588
98832.9
98725
99171.2
99574.3
100078
100740
101106
101150
101176
101194
101210
101224
101237
101249
101260
101270
101287
101299
100881
100881
100880
100879
100877
100875
100873
100870
100867
100863
100858
100853
100847
100840
100832
100823
100813
100801
100787
100770
100749
100724
100695
100662
100629
100605
100594
100593
100592
100596
100605
100659
100622
100690
100992
100053
100223
99135.5
99368.1
99690.4
100235
100733
100970
101089
101164
101193
101209
101225
101239
101250
101259
101270
101285
101292
100875
100874
100873
100872
100870
100868
100865
100861
100857
100852
100846
100840
100832
100823
100813
100802
100789
100773
100756
100735
100710
100681
100648
100611
100573
100538
100509
100487
100468
100473
100506
100767
100559
99692
99857
99772.5
98899.4
98965.3
99411.6
99818.4
100110
100365
100887
101032
101106
101140
101166
101191
101214
101234
101250
101262
101286
101301
100875
100874
100873
100872
100870
100868
100865
100861
100857
100852
100846
100840
100832
100823
100813
100802
100789
100773
100756
100735
100710
100681
100648
100611
100573
100538
100509
100486
100464
100449
100426
100487
100730
99950.8
96527.8
97221.8
98542.2
98952.8
99488.2
99934.9
100315
100503
100759
100983
101100
101141
101167
101191
101215
101234
101249
101261
101278
101296
100869
100868
100867
100866
100863
100861
100857
100853
100848
100842
100835
100827
100818
100807
100795
100782
100766
100747
100726
100701
100672
100638
100600
100557
100511
100462
100413
100364
100319
100300
100395
100608
100867
99856.4
98532.5
98434.9
98730.2
99120.3
99418.1
99608.6
99870.6
100125
100579
100930
101051
101093
101124
101158
101191
101217
101237
101253
101275
101288
100869
100868
100867
100866
100863
100861
100857
100853
100848
100842
100835
100827
100818
100807
100795
100782
100766
100747
100726
100701
100672
100638
100600
100557
100511
100462
100413
100364
100310
100269
100196
100452
100629
99810.1
97482.4
98008.5
98696.2
99161
99451.3
99637.8
99960.1
100233
100553
100897
101043
101091
101125
101158
101190
101217
101238
101252
101275
101294
100863
100863
100862
100860
100857
100854
100850
100845
100839
100833
100825
100816
100805
100793
100779
100763
100745
100723
100699
100670
100636
100598
100553
100503
100446
100382
100310
100221
100129
99923.1
100180
100173
100535
92960
94918
97643.3
98818.8
99372.3
99401.9
99312.3
99563.1
100005
100486
100818
100963
101032
101080
101125
101168
101203
101232
101248
101269
101287
100863
100863
100862
100860
100857
100854
100850
100845
100839
100833
100825
100816
100805
100793
100779
100763
100745
100723
100699
100670
100636
100598
100553
100503
100446
100382
100310
100226
100124
99987.5
99891.1
99989.7
98261.2
97746.7
97721.6
98297.6
99051.6
99483
99422.7
99275.2
99573.8
100077
100515
100814
100958
101029
101080
101126
101167
101202
101231
101249
101265
101274
100859
100858
100857
100855
100852
100848
100844
100838
100832
100824
100816
100805
100794
100780
100764
100746
100726
100702
100674
100641
100604
100560
100510
100451
100382
100301
100206
100081
99921.9
99611
99142.2
100405
96342
93751.1
96097
98407.2
99720.7
100084
99682.5
99288.2
99480.2
99942
100387
100699
100864
100970
101038
101095
101146
101190
101228
101255
101277
101287
100859
100858
100857
100855
100852
100848
100844
100838
100832
100824
100816
100805
100794
100780
100764
100746
100726
100702
100674
100641
100604
100560
100510
100451
100382
100301
100205
100092
99932.3
99696.1
99396.7
99061.8
96992.5
95295.6
97273.7
98873.4
99951.6
100199
99696.3
99241.7
99468.5
100013
100451
100702
100860
100964
101037
101096
101145
101186
101225
101257
101278
101290
100855
100854
100853
100850
100847
100843
100839
100833
100826
100817
100808
100797
100784
100769
100752
100732
100709
100683
100652
100617
100575
100527
100470
100403
100323
100227
100110
99960.7
99757.6
99476
98939.6
98683.4
100163
100182
99819.6
100457
101163
101002
100090
99307.2
99369.6
99823.4
100262
100593
100793
100922
101006
101073
101126
101169
101206
101246
101294
101305
100855
100854
100853
100850
100847
100843
100838
100833
100826
100817
100808
100797
100784
100769
100752
100732
100709
100683
100652
100617
100575
100527
100470
100403
100323
100226
100103
99964
99787
99556.2
99264.1
98586.1
97460.6
98145.6
99429.9
100608
101366
101101
100095
99263.2
99348.7
99872.5
100311
100593
100785
100915
101002
101072
101125
101166
101201
101233
101290
101312
100851
100851
100849
100847
100844
100839
100834
100828
100820
100812
100801
100790
100776
100760
100741
100720
100696
100667
100634
100596
100551
100499
100436
100363
100274
100166
100033
99868.8
99645.1
99360.9
98901.1
98353.1
98655
99764.2
99821.4
100450
101289
101196
100265
99262.6
99238.1
99729.1
100234
100567
100757
100887
100989
101064
101116
101151
101181
101218
101265
101305
100851
100851
100849
100847
100844
100839
100834
100828
100820
100812
100801
100790
100776
100760
100741
100720
100696
100667
100634
100596
100551
100499
100436
100362
100273
100160
100031
99869.8
99651.9
99379.7
99130.1
98125.8
97837.7
98898.5
99819
100844
101462
101197
100278
99291.5
99211.8
99735.3
100257
100579
100758
100882
100981
101062
101119
101155
101178
101193
101232
101310
100849
100848
100847
100844
100841
100836
100831
100824
100816
100807
100796
100784
100769
100752
100733
100711
100685
100655
100620
100580
100532
100477
100410
100332
100237
100122
99981.4
99803.5
99571.5
99276.4
98918
98362.3
98079.4
98499.7
98074.1
99064.1
100134
100547
100276
99626.1
99486.8
99891.7
100342
100653
100787
100896
100998
101068
101115
101145
101170
101180
101173
101281
100849
100848
100847
100844
100841
100836
100831
100824
100816
100807
100796
100784
100769
100752
100733
100711
100685
100655
100620
100580
100533
100477
100410
100331
100237
100121
99988
99809.3
99565.1
99266.6
98881.7
98315.9
98105.6
98486.2
99044.7
99675
99772.3
100086
100083
99703.6
99532.5
99865.4
100334
100669
100812
100897
100990
101069
101119
101149
101175
101175
101134
101256
100848
100847
100845
100843
100839
100834
100829
100822
100814
100804
100793
100780
100765
100748
100728
100705
100678
100647
100611
100569
100520
100462
100393
100310
100212
100092
99944.3
99760.5
99528.7
99238.5
98901.5
98462.4
98071.7
97552.4
96788.9
96842.3
96249.6
96346.5
96873.6
98187.6
99164.4
100012
100471
100759
100913
101014
101082
101122
101149
101168
101191
101187
101130
101230
100848
100847
100845
100843
100839
100834
100829
100822
100814
100804
100793
100780
100765
100748
100728
100705
100678
100647
100611
100569
100520
100462
100393
100311
100212
100092
99946.5
99767.2
99529.9
99226.6
98912.2
98481.6
98085.1
97898.5
97445.2
96631.1
95683.4
95872.7
96576.9
98015
99237.6
100020
100468
100755
100912
101016
101081
101124
101148
101168
101205
101205
101121
101215
100846
100846
100844
100841
100838
100833
100827
100820
100812
100803
100791
100778
100763
100745
100725
100701
100674
100643
100606
100563
100513
100454
100384
100300
100198
100076
99925.2
99739.4
99509.3
99226.4
98888.6
98469
97957.3
97465.4
96932.1
95785.7
93767.8
93086.8
93818.3
95848.4
97983.7
99389.9
100138
100537
100824
101019
101106
101139
101158
101173
101179
101173
101160
101216
100846
100846
100844
100841
100838
100833
100827
100820
100812
100803
100791
100778
100763
100745
100725
100701
100674
100643
100606
100563
100513
100454
100384
100300
100199
100076
99925.9
99741.7
99511.4
99228.6
98904.5
98526.4
98117.7
97530.4
96404
94924.9
93761.4
93263.3
93901.5
95741
97900
99389.9
100145
100529
100797
101007
101111
101138
101156
101175
101185
101180
101167
101231
100732
101170
100650
101575
101582
100620
100556
100598
100507
100446
100625
101159
100570
101580
101541
100583
100431
100569
100421
100410
101459
100890
100572
100876
100504
100546
100452
100555
100387
100478
100379
101428
100871
100486
100871
100475
100418
100409
100448
100397
100441
100437
100959
101034
100950
101082
100959
101075
100946
100794
100843
100783
100764
100688
100737
100661
100939
101028
100933
101068
100911
101065
100889
100776
100822
100772
100684
100633
100655
100623
101246
101180
101243
101228
101377
101228
101378
100566
100701
100625
100706
100591
100572
100539
100623
100442
100454
100413
100454
101238
101175
101236
101226
101366
101222
101372
100375
100629
100474
100563
100441
100656
100594
100674
100397
100478
100427
100544
101264
101175
101266
101044
101027
101042
101022
100678
101468
101158
101156
100726
100440
100479
100485
100414
100482
100429
100512
100421
100519
101257
101170
101262
101039
101016
101038
101018
100643
101441
101144
100646
101142
100408
100406
100500
100436
100547
100452
100545
100492
100576
100681
100821
100675
100790
100693
100791
100695
100372
100531
100421
100602
100580
100607
100597
100668
100815
100667
100790
100695
100791
100698
100471
100532
100482
100612
100612
100615
100616
101056
100951
100716
100944
101092
101051
100699
100911
100934
101034
101416
101494
101588
101501
101430
101215
101254
101416
101502
101585
101500
101419
101213
101209
100533
100597
100655
100675
100464
100569
100589
100567
100505
100494
100498
100583
100542
100472
100548
100463
100461
100477
100473
101006
100881
100600
100870
101042
101013
100572
100855
100846
101002
101427
101497
101570
101420
101506
101245
101234
101424
101494
101558
101495
101400
101262
101194
100319
100445
100501
100532
100246
100417
100460
100463
100449
100396
100463
100437
100366
100299
100458
100440
100392
100434
100424
100345
100400
100671
101464
101152
101151
100658
100335
100310
100380
100661
100555
100657
100432
100372
100531
100632
100344
100645
100459
100525
100496
100467
100490
100423
100409
100437
100482
100404
100423
100412
100440
100530
100546
100529
100451
100433
100517
100480
100427
100513
100296
100301
100645
101438
101141
101145
100674
100298
100343
100323
100625
100469
100338
100616
100317
100469
100602
100611
100362
100407
100398
100386
100408
100385
100407
100404
100407
100397
100406
100391
100405
100411
100450
100423
100419
100430
100404
100426
100445
100429
100406
101251
101108
101179
101321
101103
101322
101258
101212
101068
101159
101304
101058
101213
101309
101246
101175
101086
101316
101096
101320
101240
100607
100660
100621
100506
100653
100506
100614
100581
100613
100609
100509
100632
100509
100531
101226
101167
101071
101330
101070
101322
101230
100528
100593
100573
100503
100570
100516
100501
100517
100570
100548
100491
100557
100499
100490
100793
100968
100801
100886
100961
100799
100800
100783
100952
100882
100784
100955
100775
100793
100403
100413
100431
100373
100389
100423
100415
100383
100374
100367
100426
100372
100384
100423
100754
100946
100779
100867
100761
100941
100772
100754
100952
100870
100766
100948
100770
100759
100386
100376
100423
100414
100385
100378
100416
100386
100402
100428
100418
100391
100405
100393
100574
100643
100463
100583
100656
100535
100512
100349
100247
100215
100359
100349
100171
100198
100307
100561
100586
100652
100518
100654
100524
100553
100276
100509
100409
100025
100534
100226
100097
100012
99927.3
100072
99902.5
100327
100422
100563
100202
100383
100541
100154
99937.8
99796.6
99851.5
99874.9
101128
100894
100929
100682
100893
101123
100935
101360
101603
101616
101369
101351
101598
101602
101345
101140
100681
100940
100940
100909
100940
101137
100452
100472
101133
100877
100630
100915
100876
101116
100900
101384
101615
101593
101348
101376
101608
101599
101320
101140
100632
100890
100909
101117
100880
100902
100403
100404
100609
100991
100637
101061
100998
100596
100647
100425
100294
100263
100446
100406
100218
100234
100394
100606
101062
100998
100686
101000
100646
100666
100568
100984
100626
101043
100586
100973
100606
100318
100034
100095
100294
100353
100189
100380
100150
100550
101034
100954
100557
100964
100586
100539
101636
101467
101619
101415
101467
101618
101633
101697
101684
101698
101684
101688
101680
101686
101683
101645
101426
101467
101628
101472
101633
101624
101216
101224
101636
101466
101421
101621
101467
101633
101623
101694
101697
101702
101683
101641
101423
101474
101644
101469
101624
101653
101688
101682
101685
101682
101212
101206
100441
100621
100395
100509
100490
100602
100337
100157
99964.2
100109
100029
100184
100121
100243
100072
100420
100475
100573
100258
100408
100572
100295
100579
100582
100535
100557
100539
100576
100566
100546
100529
100550
100573
100584
100547
100535
100546
100523
100568
100546
100579
100571
100560
100569
100554
100545
100514
100484
100505
100542
100523
100524
100527
100513
100510
100481
100472
100475
100484
100491
100495
100492
100479
100506
100494
100480
100492
100518
100503
100499
100478
100904
101009
100524
100922
100452
100526
100229
99995.3
99995.9
100236
100460
101021
100937
100594
100920
100483
100541
100237
99925.5
99972.4
100206
100387
100881
100536
101004
100397
100877
100527
100157
99953.3
99889.5
100215
100151
99902.7
100168
99880.2
100385
100962
100878
100530
100870
100493
100467
101699
101445
101467
101768
101461
101702
101706
101794
101714
101682
101717
101686
101448
101471
101730
101454
101684
101705
101761
101737
101690
101764
101249
101262
101667
101449
101738
101411
101438
101664
101725
101755
101649
101718
101667
101737
101704
101734
101714
101669
101401
101443
101704
101441
101785
101630
101257
101205
100190
100481
99952.9
100283
100193
100472
99921.3
99793.4
99838.2
99749.9
99871.5
99829.6
99776.5
99846.2
99748.8
100125
100246
100402
99889.4
100431
99886.1
100142
100437
100450
100429
100456
100469
100448
100465
100447
100431
100450
100461
100464
100447
100447
100453
100480
100466
100462
100472
100453
100427
100413
100421
100424
100323
100301
100437
100474
100447
100437
100471
100435
100438
100439
100418
100419
100446
100431
100407
100421
100414
100439
100420
100457
100443
100462
100435
100442
100349
100345
101125
100893
100924
100668
101120
100893
100926
101345
101599
101337
101595
101348
101599
101344
101600
101128
100665
100889
100921
101121