/*--------------------------------*- C++ -*----------------------------------*\
| =========                 |                                                 |
| \\      /  F ield         | OpenFOAM: The Open Source CFD Toolbox           |
|  \\    /   O peration     | Version:  4.1                                   |
|   \\  /    A nd           | Web:      www.OpenFOAM.org                      |
|    \\/     M anipulation  |                                                 |
\*---------------------------------------------------------------------------*/
FoamFile
{
    version     2.0;
    format      ascii;
    class       volVectorField;
    location    "77";
    object      U;
}
// * * * * * * * * * * * * * * * * * * * * * * * * * * * * * * * * * * * * * //

dimensions      [0 1 -1 0 0 0 0];

internalField   nonuniform List<vector> 
4432
(
(39.9813 -3.0621e-06 0.0502435)
(39.9177 9.74051e-05 0.0897991)
(39.82 0.000195989 0.118031)
(39.6852 0.000187473 0.145349)
(39.5127 0.000140563 0.17395)
(39.3038 0.00016509 0.204087)
(39.0581 0.000252229 0.236047)
(38.7741 0.000337933 0.269301)
(38.4495 0.000402916 0.3038)
(38.0835 0.00044008 0.338929)
(37.6767 0.000469919 0.372792)
(37.2308 0.00055999 0.405864)
(36.7496 0.000429373 0.431753)
(36.2499 0.000402329 0.450502)
(35.7368 -0.00234259 0.442196)
(35.3256 -0.00654818 0.386528)
(34.9829 -0.00528099 0.426856)
(34.8571 -0.00260097 0.334873)
(34.9453 -0.00103422 0.244258)
(34.9191 0.0025157 0.385368)
(34.6787 -0.00105791 0.492229)
(34.3094 -0.0112394 0.622166)
(33.8291 -0.0218543 0.702147)
(33.2793 -0.0309339 0.695929)
(32.6636 -0.0379933 0.681434)
(32.0079 -0.0436995 0.55958)
(31.3987 -0.0401735 0.363107)
(30.864 -0.026392 0.155603)
(30.4403 -0.0181864 0.0769246)
(30.1117 -0.0237642 0.101785)
(29.8209 -0.0424312 0.245854)
(29.4788 -0.06488 0.519937)
(29.0022 -0.0726474 0.646127)
(28.4676 -0.0479953 0.299145)
(28.1041 -0.00704598 -0.452331)
(27.8952 0.0204235 -0.854663)
(27.7467 0.0285704 -0.792873)
(27.5312 0.0217683 -0.691229)
(27.2841 0.0173755 -0.580927)
(27.1164 0.0175266 -0.462491)
(27.0571 0.0143328 -0.434355)
(27.0321 0.0153139 -0.509975)
(26.9943 0.0156813 -0.479536)
(26.9542 0.0230109 -0.433677)
(26.953 0.0343082 -0.424875)
(26.9946 0.038801 -0.428081)
(27.0871 0.0289214 -0.418776)
(27.2087 0.0134305 -0.411655)
(27.3141 0.0314514 -0.394168)
(27.4414 0.0646461 -0.399192)
(27.6718 0.0550456 -0.272126)
(27.9912 0.019055 -0.248668)
(28.2093 -0.00293488 -0.32763)
(28.4993 0.0459125 -0.021733)
(39.9813 -3.0674e-06 0.050246)
(39.9177 9.74361e-05 0.0898189)
(39.82 0.000195907 0.118138)
(39.685 0.000187314 0.145424)
(39.5126 0.000140237 0.173933)
(39.3038 0.000164539 0.204086)
(39.0582 0.000251386 0.235962)
(38.7741 0.000337195 0.269155)
(38.4495 0.000401709 0.303658)
(38.0836 0.000438254 0.338644)
(37.6767 0.000467988 0.372731)
(37.2308 0.000557903 0.405627)
(36.7499 0.000427869 0.432701)
(36.2448 0.000398952 0.450703)
(35.7343 -0.00232628 0.449383)
(35.2736 -0.00660268 0.397275)
(34.9246 -0.00534943 0.377118)
(34.84 -0.00262658 0.290233)
(34.9331 -0.00100083 0.235376)
(34.937 0.00242728 0.39688)
(34.6995 -0.00116464 0.47912)
(34.3279 -0.0113174 0.540203)
(33.8587 -0.0219799 0.584814)
(33.3061 -0.031351 0.580422)
(32.6724 -0.038814 0.572036)
(31.9826 -0.045477 0.439895)
(31.3183 -0.0436674 0.25687)
(30.7426 -0.0306219 0.129728)
(30.2652 -0.0229311 0.0503715)
(29.8622 -0.0305855 -0.0512844)
(29.5738 -0.0507007 -0.173287)
(29.3079 -0.0785129 -0.1845)
(28.9724 -0.0903953 0.00620528)
(28.489 -0.0673432 0.176985)
(28.0743 -0.0210887 -0.0651247)
(27.7394 0.00955248 -0.350607)
(27.488 0.0209569 -0.315306)
(27.2103 0.0150269 -0.334131)
(26.9404 0.0116723 -0.311106)
(26.7241 0.0187095 -0.251706)
(26.6124 0.0197662 -0.211552)
(26.5418 0.0218162 -0.229524)
(26.4751 0.0229466 -0.192134)
(26.4134 0.0305542 -0.180768)
(26.3969 0.0432817 -0.189414)
(26.4248 0.0494296 -0.230264)
(26.4958 0.0400573 -0.174397)
(26.6892 0.0235803 -0.112799)
(26.8613 0.0460052 -0.0843595)
(27.0057 0.0828477 -0.10116)
(27.3355 0.0481591 -0.1477)
(27.6872 0.0116738 -0.196155)
(27.9615 -0.0131213 -0.261565)
(28.3509 0.0384568 0.09171)
(40.0069 -6.38771e-06 0.0178329)
(40.033 9.22987e-05 0.0552024)
(40.0603 0.000193771 0.0938788)
(40.0847 0.000182185 0.133006)
(40.106 0.000136174 0.172714)
(40.1259 0.00016598 0.213577)
(40.1448 0.000266135 0.255919)
(40.1615 0.000373784 0.29988)
(40.1738 0.000437617 0.345511)
(40.1803 0.000472485 0.392628)
(40.1795 0.000495236 0.440652)
(40.1678 0.000460306 0.487765)
(40.1416 0.000670587 0.531496)
(40.0825 0.000560903 0.561638)
(39.993 0.00426754 0.58334)
(39.7286 0.00673219 0.557854)
(39.4258 0.00829144 0.434538)
(38.7375 0.00796968 0.353265)
(37.7747 -0.000447869 0.397248)
(36.9594 -0.00275582 0.458699)
(36.2551 7.54346e-05 0.53047)
(35.6294 0.00359129 0.62025)
(35.0888 0.00686835 0.712733)
(34.5707 0.00978084 0.812694)
(34.0717 0.0113065 0.889297)
(33.5819 0.0127386 0.901474)
(33.0841 0.0145754 0.861573)
(32.5529 0.0211929 0.809452)
(31.9385 0.0345727 0.74155)
(31.3228 0.0412909 0.649293)
(30.7379 0.043476 0.583695)
(30.1755 0.0429163 0.620214)
(29.7258 0.0380944 0.641657)
(29.4242 0.0261326 0.575777)
(29.2054 0.00414597 0.534741)
(28.9954 -0.0315357 0.655644)
(28.8043 -0.0731823 0.793781)
(28.5707 -0.103475 0.841324)
(28.3024 -0.111417 0.766146)
(28.0387 -0.101751 0.562926)
(27.8285 -0.103214 0.389038)
(27.7343 -0.127063 0.364892)
(27.6329 -0.144819 0.368475)
(27.5167 -0.157764 0.32533)
(27.4605 -0.168184 0.253067)
(27.4754 -0.173224 0.172818)
(27.5358 -0.179056 0.126628)
(27.6128 -0.188697 0.045789)
(27.7621 -0.18446 0.00596518)
(27.8063 -0.209716 0.0651018)
(27.9693 -0.173469 -0.124715)
(28.0701 -0.138366 -0.23983)
(28.5055 -0.102047 -0.345022)
(29.0303 -0.0264191 -0.478816)
(40.007 -6.3877e-06 0.0178299)
(40.033 9.23004e-05 0.0551952)
(40.0603 0.000193771 0.0938666)
(40.0846 0.000182183 0.132984)
(40.106 0.00013617 0.172696)
(40.126 0.000165968 0.213571)
(40.1451 0.000266138 0.255932)
(40.1617 0.000373727 0.299893)
(40.174 0.00043745 0.345527)
(40.1802 0.000470968 0.392598)
(40.1796 0.000492905 0.440555)
(40.168 0.000463774 0.487841)
(40.1413 0.000645553 0.531202)
(40.0876 0.000656552 0.564618)
(39.9928 0.00386904 0.576388)
(39.8029 0.00648661 0.546205)
(39.4852 0.00888931 0.452385)
(38.7767 0.00830197 0.342906)
(37.7925 -0.000418827 0.380122)
(36.9532 -0.00255953 0.44859)
(36.2681 0.000190071 0.509902)
(35.648 0.00373591 0.589044)
(35.1082 0.00714318 0.667242)
(34.5995 0.0104191 0.751627)
(34.1121 0.0123171 0.820923)
(33.6462 0.0147174 0.831414)
(33.1653 0.0185829 0.824293)
(32.6413 0.0249742 0.811905)
(32.097 0.0353155 0.744595)
(31.5769 0.0470145 0.618688)
(31.0214 0.059332 0.525246)
(30.3955 0.0710585 0.538709)
(29.8294 0.0620624 0.539291)
(29.4839 0.0421504 0.504822)
(29.2909 0.0102238 0.471254)
(29.1792 -0.0323032 0.542184)
(29.0869 -0.0761658 0.627294)
(28.9612 -0.106612 0.663888)
(28.7846 -0.118871 0.622689)
(28.6559 -0.117691 0.507463)
(28.5677 -0.115846 0.376789)
(28.5668 -0.130527 0.324824)
(28.5422 -0.148815 0.305202)
(28.4902 -0.158623 0.256039)
(28.4574 -0.166849 0.174759)
(28.4722 -0.169005 0.0887429)
(28.5078 -0.172052 0.0491052)
(28.5628 -0.181505 -0.0260233)
(28.6118 -0.196388 -0.0738339)
(28.5725 -0.198248 -0.126938)
(28.5362 -0.127316 -0.347765)
(28.6659 -0.109057 -0.472009)
(29.0729 -0.0827675 -0.535707)
(29.5146 -0.00916248 -0.66836)
(39.9989 -7.66538e-06 0.0250617)
(39.9889 8.9532e-05 0.0715604)
(39.9616 0.000191756 0.115121)
(39.9158 0.00018147 0.157218)
(39.8524 0.00013777 0.199106)
(39.7734 0.000171063 0.241775)
(39.6798 0.000271303 0.285778)
(39.5709 0.00036836 0.331483)
(39.446 0.000421342 0.379197)
(39.3051 0.000437898 0.429052)
(39.1488 0.000438409 0.481001)
(38.9768 0.000476453 0.53474)
(38.7873 0.000567059 0.589975)
(38.5794 0.000985047 0.64591)
(38.337 0.00136458 0.70573)
(38.1009 0.00314348 0.779167)
(37.7591 0.0039544 0.81936)
(37.3918 0.00554125 0.938565)
(37.0208 0.0024703 1.11163)
(36.6024 0.00169864 1.22418)
(36.1296 0.00284623 1.27157)
(35.6367 0.00492774 1.28876)
(35.1578 0.00770975 1.31594)
(34.6788 0.0119188 1.35587)
(34.1968 0.0142578 1.39329)
(33.7044 0.0179449 1.38204)
(33.1635 0.0252489 1.32792)
(32.5457 0.0357218 1.2904)
(31.8302 0.0441685 1.2003)
(31.0706 0.0400479 1.11445)
(30.2411 0.0361881 1.14938)
(29.3969 0.0461109 1.22477)
(28.6921 0.0758912 1.18743)
(28.0475 0.124717 0.984735)
(27.5525 0.156379 0.520175)
(27.4915 0.0493175 0.471927)
(27.2809 -0.0666731 0.661862)
(26.9551 -0.113068 0.686044)
(26.5216 -0.116968 0.662027)
(26.2846 -0.0672857 0.375789)
(26.2296 -0.0768722 0.274499)
(26.2158 -0.129138 0.390627)
(26.1512 -0.156163 0.355053)
(26.0376 -0.162711 0.211986)
(26.0193 -0.166435 0.0617268)
(26.0917 -0.160875 -0.0743264)
(26.2001 -0.160572 -0.15511)
(26.3588 -0.157369 -0.251854)
(26.5643 -0.173703 -0.250385)
(26.9656 -0.144101 -0.39879)
(27.3349 -0.0723936 -0.434702)
(27.5135 -0.0505697 -0.407816)
(27.6124 -0.049777 -0.58212)
(27.817 -0.0560516 -0.914273)
(39.9989 -7.66532e-06 0.0250608)
(39.9889 8.95335e-05 0.071554)
(39.9616 0.000191758 0.115112)
(39.9157 0.000181472 0.157209)
(39.8523 0.000137773 0.199097)
(39.7735 0.000171067 0.241767)
(39.6799 0.000271305 0.285767)
(39.571 0.000368362 0.33146)
(39.446 0.000421353 0.379171)
(39.3051 0.000437743 0.429014)
(39.1487 0.000437869 0.480961)
(38.9769 0.000476102 0.534756)
(38.7881 0.000565299 0.589896)
(38.5793 0.000987161 0.645891)
(38.3437 0.00136085 0.703363)
(38.08 0.00310139 0.771001)
(37.77 0.00357214 0.839572)
(37.4014 0.00579028 0.942978)
(37.0209 0.00263153 1.10432)
(36.6095 0.00178226 1.20967)
(36.144 0.00295478 1.25194)
(35.6583 0.00511089 1.26166)
(35.1876 0.00809528 1.27867)
(34.7104 0.0129646 1.33007)
(34.2221 0.015851 1.3739)
(33.7286 0.0201854 1.36885)
(33.1878 0.0286055 1.34709)
(32.5896 0.0401199 1.33427)
(31.9415 0.0497947 1.27622)
(31.2262 0.0512752 1.17419)
(30.3559 0.0461789 1.20097)
(29.511 0.0531728 1.27532)
(28.8247 0.0881788 1.19305)
(28.3424 0.12815 0.915504)
(28.0657 0.124023 0.600756)
(27.9278 0.0539449 0.411992)
(27.7733 -0.0199659 0.327101)
(27.5142 -0.066109 0.251051)
(27.2117 -0.0747365 0.139802)
(26.9976 -0.0353989 -0.0803995)
(26.8387 -0.0445816 -0.107673)
(26.787 -0.0799908 -0.101399)
(26.7044 -0.106874 -0.174314)
(26.5815 -0.119993 -0.297915)
(26.5187 -0.127326 -0.429862)
(26.5557 -0.122679 -0.551445)
(26.6218 -0.118791 -0.642842)
(26.7429 -0.11677 -0.691366)
(26.8706 -0.124739 -0.73593)
(27.2294 -0.100521 -0.790136)
(27.5034 -0.0617799 -0.668384)
(27.6618 -0.0458117 -0.585435)
(27.9167 -0.0788152 -0.488139)
(27.8896 -0.052273 -1.11403)
(39.9986 -7.30698e-06 0.0316954)
(39.9876 8.58189e-05 0.0929641)
(39.9603 0.000184488 0.154307)
(39.9155 0.000173257 0.216981)
(39.8533 0.000127723 0.281357)
(39.7745 0.00015874 0.347805)
(39.6792 0.000257408 0.416514)
(39.5661 0.000355882 0.487628)
(39.4336 0.000415827 0.561297)
(39.2805 0.000442439 0.637597)
(39.1064 0.000457913 0.716561)
(38.91 0.000506012 0.798288)
(38.6893 0.00057324 0.88304)
(38.4421 0.000827343 0.97205)
(38.1631 0.000958524 1.0682)
(37.8597 0.00228005 1.17457)
(37.5139 0.0026975 1.31787)
(37.086 0.00270108 1.39515)
(36.7047 0.00227057 1.46177)
(36.3494 0.00289763 1.54887)
(35.9706 0.00395882 1.63664)
(35.5646 0.00428305 1.69333)
(35.1223 0.00427168 1.74792)
(34.6238 0.00520523 1.81599)
(34.0928 0.00410397 1.89533)
(33.5237 0.00375917 1.93574)
(32.8546 0.00863531 1.96509)
(32.0831 0.0149789 2.04623)
(31.1936 0.0135593 2.11332)
(30.1094 0.0130699 2.14267)
(28.9698 0.0174154 2.20637)
(28.003 0.0291398 2.15492)
(27.1803 0.0552815 1.91391)
(26.508 0.0952151 1.31114)
(26.4264 0.0958152 0.465685)
(26.5898 -0.0354464 0.716913)
(26.4417 -0.158253 1.20076)
(25.9893 -0.239096 1.35049)
(25.4037 -0.209475 1.18111)
(25.1687 -0.0905593 0.561152)
(25.075 -0.066947 0.400521)
(25.074 -0.107207 0.621599)
(24.9736 -0.137219 0.683471)
(24.8415 -0.133106 0.523304)
(24.828 -0.12127 0.348261)
(24.9341 -0.112559 0.217614)
(25.0625 -0.107874 0.0799236)
(25.2194 -0.0890828 0.0120574)
(25.4321 -0.0882005 -0.145428)
(25.7632 -0.0932192 -0.407332)
(26.2903 -0.0952943 -0.518843)
(26.579 -0.0988883 -0.492006)
(26.7911 -0.0957914 -0.512944)
(27.1308 -0.0199438 -0.583059)
(39.9986 -7.30692e-06 0.0316958)
(39.9876 8.58202e-05 0.0929611)
(39.9603 0.00018449 0.1543)
(39.9154 0.000173259 0.216971)
(39.8532 0.000127726 0.281343)
(39.7746 0.000158744 0.347788)
(39.6794 0.000257412 0.416494)
(39.5663 0.000355886 0.487611)
(39.4336 0.000415827 0.56129)
(39.2806 0.000442457 0.637602)
(39.1064 0.000457889 0.716585)
(38.9101 0.000506122 0.798306)
(38.6897 0.000572739 0.883032)
(38.4423 0.000829968 0.971764)
(38.1655 0.00095724 1.06761)
(37.858 0.00231563 1.17381)
(37.5282 0.00251957 1.31239)
(37.0992 0.00264857 1.42335)
(36.7114 0.00225588 1.46646)
(36.3594 0.00293941 1.53663)
(35.9826 0.00412703 1.61628)
(35.5771 0.00458176 1.66737)
(35.1199 0.00446732 1.72333)
(34.6114 0.00499604 1.82609)
(34.0909 0.00395352 1.90706)
(33.5145 0.00360598 1.96201)
(32.8217 0.00980454 2.05451)
(32.0361 0.0171748 2.17769)
(31.1608 0.0156264 2.26225)
(30.0963 0.0149384 2.28526)
(29.0175 0.0179817 2.28587)
(28.1163 0.0280985 2.24029)
(27.3458 0.0528487 2.10385)
(26.6765 0.105816 1.68753)
(26.5192 0.119324 0.875095)
(26.6498 -0.0319878 0.614303)
(26.5659 -0.179327 0.660817)
(26.2655 -0.309179 0.673831)
(25.8568 -0.372075 0.66981)
(25.5501 -0.253999 0.255123)
(25.4733 -0.107373 0.0704948)
(25.3975 -0.106432 0.139326)
(25.2791 -0.115057 0.0575453)
(25.1186 -0.113061 -0.0955921)
(25.0351 -0.0965772 -0.256874)
(25.1025 -0.0899056 -0.387157)
(25.2315 -0.085826 -0.541808)
(25.4321 -0.0761319 -0.665997)
(25.6597 -0.0655976 -0.782713)
(25.9425 -0.0649362 -0.917074)
(26.3974 -0.0855274 -0.930518)
(26.7119 -0.0995704 -0.908246)
(26.9382 -0.150551 -0.961207)
(27.4455 -0.0518874 -0.973809)
(39.9986 -7.2248e-06 0.0391832)
(39.9878 8.66157e-05 0.115723)
(39.9611 0.000184545 0.192953)
(39.9173 0.000170539 0.271551)
(39.8565 0.000122844 0.351494)
(39.7798 0.000152271 0.433299)
(39.6872 0.000250441 0.517441)
(39.5775 0.000350001 0.604383)
(39.4492 0.000412864 0.694575)
(39.3012 0.000441537 0.788448)
(39.1331 0.00046094 0.886423)
(38.9437 0.000492624 0.989021)
(38.7317 0.000572746 1.097)
(38.4944 0.00068009 1.21192)
(38.232 0.00100155 1.33603)
(37.937 0.00121827 1.47405)
(37.6331 0.00285693 1.62818)
(37.2437 0.0052107 1.78205)
(36.7896 0.00471129 1.86616)
(36.3628 0.00457524 1.92852)
(35.9529 0.00586042 2.00962)
(35.5259 0.00467875 2.09418)
(35.0519 0.00192697 2.23722)
(34.4921 -0.00123409 2.37786)
(33.877 -0.0080466 2.50941)
(33.1772 -0.0120943 2.6282)
(32.3145 -0.00598491 2.75751)
(31.3621 0.00207725 2.97783)
(30.3145 0.000924875 3.20157)
(29.1617 0.000651594 3.30177)
(28.084 0.00798333 3.23833)
(27.1493 0.0258627 2.99742)
(26.3156 0.0568937 2.4703)
(25.7065 0.112791 1.38344)
(25.8236 0.16375 0.0843112)
(25.6226 -0.0661197 0.359237)
(25.5564 -0.413729 1.8912)
(24.8893 -0.643395 2.72702)
(24.2352 -0.684825 2.73914)
(23.9329 -0.311654 1.43675)
(23.787 -0.147366 0.734766)
(23.8915 -0.189987 0.858731)
(23.8234 -0.232885 0.774641)
(23.7743 -0.231773 0.488801)
(23.7888 -0.217086 0.237178)
(23.8867 -0.209024 0.0231199)
(24.068 -0.200896 -0.184839)
(24.2441 -0.234555 -0.423255)
(24.6947 -0.182884 -0.80655)
(24.7509 -0.165435 -0.824982)
(24.9538 -0.172888 -0.9712)
(25.1925 -0.149812 -1.05215)
(25.4814 -0.226663 -1.03104)
(25.6959 -0.150119 -0.935146)
(39.9986 -7.22473e-06 0.0391846)
(39.9878 8.6617e-05 0.115719)
(39.961 0.000184546 0.192944)
(39.9172 0.000170541 0.271542)
(39.8565 0.000122846 0.351485)
(39.7798 0.000152279 0.433288)
(39.6873 0.000250454 0.517425)
(39.5776 0.000350026 0.604364)
(39.4492 0.000412879 0.694557)
(39.3013 0.000441639 0.788434)
(39.1331 0.000460758 0.886415)
(38.9438 0.000493824 0.989004)
(38.7318 0.0005762 1.09699)
(38.4949 0.000683445 1.21179)
(38.2321 0.00101715 1.33587)
(37.9404 0.00119029 1.47327)
(37.6278 0.00301499 1.62818)
(37.2686 0.00482571 1.79792)
(36.8343 0.00433224 1.87065)
(36.3969 0.00464308 1.92215)
(35.9768 0.00651428 2.00159)
(35.5354 0.00610645 2.09604)
(35.0077 0.00201818 2.23527)
(34.4432 -0.00151936 2.37372)
(33.844 -0.00828401 2.50292)
(33.0971 -0.0126835 2.65277)
(32.2363 -0.0050924 2.84673)
(31.3347 0.00342087 3.0855)
(30.337 0.00181733 3.27218)
(29.2408 0.000526133 3.34314)
(28.1982 0.00675996 3.26333)
(27.2908 0.0238222 3.06052)
(26.5445 0.0507657 2.66502)
(26.054 0.110789 1.82965)
(26.1921 0.225903 0.602644)
(26.3729 -0.033848 0.265537)
(26.3693 -0.491592 0.468541)
(25.9543 -0.74592 0.734638)
(25.2849 -0.912317 0.773281)
(24.8007 -0.777866 0.512437)
(24.6233 -0.276501 0.266244)
(24.6454 -0.18081 0.157587)
(24.6088 -0.181058 -0.0787004)
(24.5331 -0.168767 -0.345557)
(24.5452 -0.150887 -0.573961)
(24.6563 -0.136353 -0.785794)
(24.8443 -0.118528 -0.996147)
(25.0566 -0.131853 -1.20961)
(25.262 -0.160179 -1.34841)
(25.3467 -0.0636403 -1.66628)
(25.6365 0.0131243 -1.85032)
(25.813 -0.017341 -1.66378)
(25.9635 -0.0668633 -1.56568)
(26.1582 0.0607375 -1.63664)
(39.9986 -5.92719e-06 0.0466443)
(39.9881 8.19371e-05 0.137739)
(39.9621 0.000175282 0.229818)
(39.9197 0.000163101 0.323793)
(39.861 0.00011784 0.419729)
(39.7871 0.000146781 0.518324)
(39.698 0.000241284 0.620172)
(39.5924 0.000336967 0.725798)
(39.4687 0.000397437 0.835699)
(39.3259 0.00042636 0.950364)
(39.1637 0.000447077 1.07028)
(38.9812 0.000483607 1.19598)
(38.7774 0.000561234 1.32827)
(38.5509 0.000677014 1.46831)
(38.3017 0.000898601 1.61802)
(38.0293 0.00119286 1.78052)
(37.7399 0.00208466 1.95666)
(37.4369 0.0046037 2.16513)
(37.0747 0.00796891 2.31482)
(36.6475 0.00819535 2.40891)
(36.1762 0.00815582 2.48063)
(35.625 0.0036507 2.58831)
(35.0646 -0.00264318 2.76426)
(34.4979 -0.00864434 2.9922)
(33.8359 -0.0185374 3.24192)
(33.0265 -0.0211708 3.51166)
(31.9793 -0.0095606 3.75135)
(30.8731 0.00646008 4.02375)
(29.7932 0.0101017 4.28334)
(28.6864 0.00977162 4.36647)
(27.6225 0.0180871 4.21483)
(26.6204 0.0449846 3.8548)
(25.5545 0.102514 3.17987)
(24.6015 0.279444 1.8531)
(24.2569 0.588283 0.595315)
(17.392 0.033698 2.7046)
(18.4413 -0.547593 2.51534)
(18.8289 -1.05972 2.22147)
(18.8109 -1.66952 2.55201)
(19.9243 -0.984542 0.372024)
(20.9763 -0.295991 0.615957)
(21.123 -0.644988 1.68869)
(21.2747 -0.564466 1.46835)
(21.4764 -0.464559 1.09121)
(21.6854 -0.408714 0.753738)
(21.8553 -0.386165 0.447644)
(22.06 -0.356151 0.141507)
(22.2129 -0.359386 -0.18092)
(22.4341 -0.34323 -0.496995)
(22.4596 -0.278305 -0.687122)
(22.4365 -0.195968 -0.863499)
(22.4442 -0.155374 -0.983832)
(22.54 -0.16388 -0.998653)
(22.3415 -0.238906 -1.07328)
(39.9987 -5.92865e-06 0.0466455)
(39.9881 8.19459e-05 0.137735)
(39.9621 0.000175251 0.229809)
(39.9196 0.00016323 0.323786)
(39.861 0.000117271 0.419722)
(39.7872 0.000145048 0.518314)
(39.6981 0.000239275 0.620154)
(39.5925 0.000334913 0.725773)
(39.4687 0.000395393 0.835673)
(39.326 0.000424407 0.95034)
(39.1637 0.000444984 1.07026)
(38.9813 0.000482427 1.19596)
(38.7775 0.000564451 1.32826)
(38.5513 0.000679944 1.46827)
(38.302 0.000914179 1.61799)
(38.0308 0.00117176 1.77997)
(37.7411 0.00221102 1.95746)
(37.4446 0.0041975 2.15376)
(37.1204 0.00726862 2.31919)
(36.7154 0.00838883 2.43733)
(36.2293 0.00968401 2.53566)
(35.6872 0.00534726 2.66808)
(35.0817 -0.00273442 2.80497)
(34.4628 -0.00878554 2.99459)
(33.7659 -0.0192714 3.22612)
(32.9077 -0.0210795 3.50087)
(31.9171 -0.00885531 3.76694)
(30.9234 0.00572646 4.06703)
(29.8911 0.00854722 4.29587)
(28.8 0.00818075 4.36577)
(27.7642 0.0165126 4.22342)
(26.8379 0.0417165 3.92096)
(26.0115 0.0947747 3.38304)
(25.3882 0.342155 2.36537)
(25.6775 1.1259 0.938678)
(26.7355 1.96577 -0.586769)
(27.6984 2.02116 -0.797948)
(27.5305 1.7474 -0.549147)
(26.6919 1.4427 -0.368041)
(26.3172 0.964681 -0.510541)
(24.3397 0.181384 0.0233581)
(24.2273 -0.00822306 0.0883228)
(24.1139 0.0800382 -0.177807)
(23.9399 0.178375 -0.479549)
(23.776 0.242779 -0.74224)
(23.6057 0.290163 -0.967656)
(23.4264 0.353831 -1.17223)
(23.2233 0.397275 -1.35042)
(23.0394 0.423355 -1.48847)
(22.7798 0.524061 -1.63918)
(22.7685 0.633801 -1.68848)
(22.6 0.710198 -1.69689)
(22.6291 0.732029 -1.52794)
(22.1258 0.751484 -1.60641)
(39.9987 -6.0837e-06 0.0538456)
(39.9886 8.25438e-05 0.158962)
(39.9637 0.000175873 0.265395)
(39.9232 0.000162074 0.374299)
(39.8673 0.000115526 0.48568)
(39.7967 0.00014163 0.600251)
(39.7115 0.000232381 0.718646)
(39.6104 0.000325346 0.841468)
(39.4917 0.000385278 0.969319)
(39.3547 0.000415794 1.10278)
(39.1987 0.000437787 1.24239)
(39.0232 0.000477813 1.3887)
(38.8273 0.000552604 1.54234)
(38.6104 0.0006787 1.70409)
(38.3722 0.000842001 1.87501)
(38.1145 0.00113972 2.05656)
(37.8387 0.00151735 2.24893)
(37.5543 0.0028248 2.45705)
(37.2556 0.00424787 2.65536)
(36.9218 0.00310721 2.84508)
(36.5243 0.0015327 3.01783)
(36.0359 -0.000716671 3.2361)
(35.3981 -0.00482056 3.41136)
(34.7445 -0.0148916 3.64942)
(34.072 -0.0285959 4.04264)
(33.2477 -0.0344367 4.52896)
(32.1551 -0.00980173 4.93313)
(30.9166 0.020021 5.16021)
(29.7256 0.0231409 5.34684)
(28.5396 0.0186513 5.41859)
(27.4056 0.0300548 5.28779)
(26.3079 0.0610386 4.94755)
(24.9593 0.14579 4.46396)
(23.9614 0.457268 3.7311)
(14.5556 0.379978 -0.0358045)
(14.0885 0.0267744 2.73572)
(14.2311 -0.280035 5.63467)
(13.8746 -0.0737859 4.83134)
(13.7541 -0.172174 3.58661)
(12.7465 -0.290304 2.3158)
(15.1676 -0.164974 1.03338)
(15.6345 -0.10798 0.641566)
(15.7194 -0.0394253 0.579425)
(15.9304 0.0231434 0.471801)
(16.0641 0.0583505 0.302006)
(16.0513 0.0944911 0.117372)
(15.9649 0.148148 -0.106213)
(15.9284 0.187077 -0.419267)
(15.8686 0.173127 -0.732972)
(15.8891 0.113238 -0.994633)
(16.0301 0.0283325 -1.255)
(16.4899 -0.0775301 -1.57725)
(17.0738 -0.174706 -1.81846)
(18.3492 -0.574113 -2.54822)
(39.9987 -6.0852e-06 0.0538468)
(39.9886 8.25528e-05 0.158955)
(39.9637 0.000175842 0.26538)
(39.9231 0.000162205 0.374285)
(39.8672 0.000114957 0.485669)
(39.7967 0.000139871 0.600238)
(39.7116 0.000230307 0.718628)
(39.6105 0.00032316 0.841446)
(39.4918 0.000383121 0.969297)
(39.3547 0.000413397 1.10276)
(39.1987 0.000436508 1.24237)
(39.0233 0.000478218 1.38868)
(38.8275 0.000553693 1.54231)
(38.6107 0.000681038 1.70404)
(38.3726 0.000850574 1.87495)
(38.115 0.00114782 2.05616)
(37.8405 0.00153327 2.24851)
(37.5557 0.00284155 2.45174)
(37.26 0.00416461 2.65618)
(36.9371 0.00304584 2.85896)
(36.5414 0.00219046 3.05781)
(36.1037 -0.000612674 3.26275)
(35.47 -0.00651926 3.48631)
(34.7559 -0.0145223 3.70398)
(34.0125 -0.0297326 4.00992)
(33.1131 -0.0350061 4.45867)
(32.0135 -0.00802436 4.80684)
(30.9486 0.0166414 5.14692)
(29.855 0.0204762 5.40768)
(28.7001 0.0161558 5.45967)
(27.5899 0.0283381 5.27092)
(26.5921 0.0579681 4.94618)
(25.6405 0.158713 4.4963)
(24.7228 0.722404 3.88994)
(25.6627 2.10958 3.21504)
(14.7196 0.0369383 2.69343)
(15.234 0.117846 1.52872)
(14.7467 0.745754 0.755441)
(13.264 1.03384 0.199313)
(12.3728 1.03503 0.175527)
(13.2583 0.996787 0.567298)
(13.6256 0.96344 0.493558)
(13.6502 1.01219 0.202635)
(13.6962 1.07274 -0.0668451)
(13.8325 1.1182 -0.276634)
(13.9954 1.182 -0.453865)
(14.1981 1.2887 -0.60392)
(14.4353 1.39889 -0.713218)
(14.6652 1.48606 -0.783233)
(14.9271 1.54584 -0.865579)
(15.2208 1.58936 -0.949485)
(15.6404 1.62038 -0.964373)
(16.0776 1.6345 -0.88832)
(16.5205 1.41345 -0.923547)
(39.9988 -4.76074e-06 0.0606994)
(39.9892 7.46051e-05 0.179153)
(39.9658 0.000160804 0.299198)
(39.9276 0.000149099 0.422214)
(39.8748 0.000105634 0.548188)
(39.8082 0.000132055 0.677926)
(39.7277 0.000221131 0.812179)
(39.632 0.000313029 0.95167)
(39.5194 0.000373544 1.0971)
(39.389 0.000404249 1.2491)
(39.2403 0.000426222 1.40821)
(39.0727 0.000463271 1.57485)
(38.8852 0.000533886 1.74938)
(38.6772 0.000651148 1.93207)
(38.4485 0.000798781 2.12311)
(38.2005 0.00102414 2.32263)
(37.9346 0.00123617 2.52986)
(37.655 0.00169284 2.74486)
(37.3636 0.00151653 2.9624)
(37.0553 0.000277724 3.18436)
(36.7147 -0.00170904 3.42229)
(36.3364 -0.00162549 3.71403)
(35.9015 0.00124726 4.03021)
(35.2634 -0.00983455 4.37891)
(34.5456 -0.026355 4.86623)
(33.8344 -0.0377854 5.51152)
(32.9466 -0.012538 6.05858)
(31.7692 0.0326358 6.40665)
(30.3463 0.0516821 6.60011)
(28.8182 0.0348052 6.5827)
(27.5548 0.0277284 6.27612)
(26.5006 0.0348924 5.90598)
(25.4446 0.0600642 5.7669)
(24.717 0.28164 6.37296)
(23.6766 0.826971 8.09839)
(11.4495 0.0866227 2.79324)
(11.0796 0.135293 1.28021)
(9.58368 0.325713 0.781693)
(7.94893 0.493923 0.583219)
(5.85186 0.591993 -0.773067)
(2.43461 -0.180035 -2.23373)
(2.0979 -1.11162 -1.56519)
(2.60318 -1.35309 -0.91734)
(3.77032 -1.25352 -0.863099)
(5.58835 -1.20003 -1.17744)
(7.53514 -1.23882 -1.52947)
(9.47452 -1.24849 -1.85522)
(11.4512 -1.21272 -2.21142)
(13.3537 -1.19994 -2.60093)
(15.149 -1.21328 -2.99462)
(16.8175 -1.23046 -3.3844)
(18.5304 -1.22377 -3.77378)
(20.0325 -1.21984 -4.09921)
(22.0269 -1.25047 -4.77886)
(39.9988 -4.76068e-06 0.0607001)
(39.9892 7.4606e-05 0.179145)
(39.9658 0.000160805 0.299183)
(39.9275 0.000149099 0.4222)
(39.8748 0.000105646 0.548177)
(39.8082 0.00013199 0.677914)
(39.7278 0.000221258 0.812162)
(39.6321 0.000312097 0.95165)
(39.5195 0.000370946 1.09708)
(39.3891 0.000400983 1.24908)
(39.2404 0.000423943 1.40819)
(39.0727 0.000462734 1.57483)
(38.8853 0.000533904 1.74934)
(38.6774 0.000651757 1.93201)
(38.4489 0.000799321 2.12303)
(38.2009 0.00102845 2.3224)
(37.9353 0.00124141 2.52945)
(37.6553 0.00170322 2.74314)
(37.3618 0.00154153 2.96001)
(37.0519 0.000271925 3.18322)
(36.7132 -0.00162417 3.42804)
(36.3422 -0.00182108 3.71123)
(35.9238 0.0020489 4.09186)
(35.3488 -0.00752736 4.42248)
(34.5527 -0.0314305 4.85347)
(33.7463 -0.0410001 5.40202)
(32.667 -0.0198675 5.90185)
(31.4566 0.0211179 6.29719)
(30.3465 0.0419697 6.56499)
(29.1281 0.025449 6.6031)
(27.8121 0.0232638 6.33129)
(26.6771 0.0347891 5.9115)
(25.7314 0.0631513 5.63551)
(24.7035 0.327919 5.79586)
(24.9048 1.37849 7.1978)
(23.1555 2.11043 7.66235)
(21.7579 1.9747 6.06484)
(19.5405 1.88095 4.03671)
(17.051 1.86379 2.55376)
(15.1553 1.81975 1.56512)
(13.9874 1.67354 0.94259)
(13.296 1.53461 0.565323)
(12.7598 1.4475 0.289655)
(12.4966 1.4399 0.107969)
(12.4776 1.45247 -0.0321126)
(12.6195 1.45005 -0.173166)
(12.9697 1.47497 -0.301538)
(13.4958 1.53546 -0.429731)
(14.105 1.5779 -0.550508)
(14.7927 1.57888 -0.683216)
(15.5383 1.5492 -0.839163)
(16.4617 1.51705 -1.01742)
(17.3862 1.49094 -1.13697)
(18.5444 1.32379 -1.49909)
(39.9988 -5.43566e-06 0.0671206)
(39.99 7.45746e-05 0.198057)
(39.9683 0.000160698 0.330839)
(39.9329 0.000147188 0.467082)
(39.8838 0.000102988 0.606798)
(39.8218 0.000127497 0.750907)
(39.7467 0.000213704 0.900273)
(39.6573 0.000303398 1.05572)
(39.5517 0.000362925 1.21804)
(39.429 0.000393436 1.38791)
(39.2884 0.000415098 1.56586)
(39.1292 0.000451724 1.75222)
(38.9504 0.000519833 1.9471)
(38.7511 0.000627058 2.15034)
(38.5309 0.000772115 2.36144)
(38.2906 0.000947613 2.57958)
(38.0319 0.0011073 2.80336)
(37.758 0.00129804 3.03186)
(37.4724 0.00130331 3.26347)
(37.1777 0.00115378 3.5029)
(36.8747 0.000590144 3.76281)
(36.5613 0.00156188 4.07833)
(36.2439 0.00231383 4.47008)
(35.8677 0.0188052 4.99352)
(35.2097 0.015823 5.64083)
(34.5966 -0.00353018 6.30467)
(33.9266 -0.0128682 6.89519)
(33.0746 -0.00198777 7.57684)
(31.9122 0.0413043 8.11448)
(30.4283 0.0773181 8.23974)
(28.6276 0.0732018 7.6036)
(26.7552 0.0447829 6.83851)
(25.4128 0.0317995 6.55393)
(24.0894 0.087518 6.73673)
(24.5566 0.495943 9.17684)
(22.1203 0.46443 9.61163)
(19.3391 0.162876 7.33177)
(16.2692 -0.110194 4.73952)
(13.4015 -0.200319 2.85951)
(11.3425 -0.348739 1.43475)
(10.6229 -0.773472 0.315094)
(10.7431 -1.21139 -0.669529)
(11.3924 -1.41979 -1.49785)
(12.643 -1.44949 -2.15338)
(14.2816 -1.43655 -2.73705)
(16.0153 -1.44322 -3.24701)
(17.6851 -1.43165 -3.65242)
(19.242 -1.38822 -3.97971)
(20.6532 -1.33393 -4.26371)
(21.9084 -1.28587 -4.51268)
(23.0189 -1.23627 -4.72819)
(24.0523 -1.17923 -4.89832)
(24.9585 -1.11843 -5.049)
(25.7188 -1.07829 -5.24715)
(39.9989 -5.43556e-06 0.0671214)
(39.99 7.45754e-05 0.198046)
(39.9683 0.0001607 0.330819)
(39.9327 0.000147186 0.467063)
(39.8837 0.000103001 0.606781)
(39.8218 0.000127457 0.750888)
(39.7469 0.000213905 0.900249)
(39.6574 0.000302595 1.0557)
(39.5518 0.000360415 1.21801)
(39.429 0.000390326 1.38788)
(39.2885 0.000412283 1.56583)
(39.1293 0.000446904 1.75218)
(38.9506 0.000515452 1.94706)
(38.7513 0.000625157 2.15029)
(38.5312 0.000766879 2.36137)
(38.2909 0.000941197 2.57944)
(38.0323 0.00110559 2.80317)
(37.7582 0.00129765 3.03137)
(37.4722 0.00131529 3.26339)
(37.1767 0.00115062 3.50352)
(36.8741 0.000669584 3.76641)
(36.5637 0.00123508 4.07549)
(36.2489 0.00354134 4.48297)
(35.9278 0.0152958 4.96838)
(35.4283 0.0112661 5.60081)
(34.7127 -0.00725867 6.24458)
(33.9202 -0.0215676 6.98606)
(32.6973 -0.00749203 7.53697)
(31.4231 0.032788 7.84963)
(30.183 0.0655827 7.96782)
(28.7989 0.072937 7.76619)
(27.2264 0.0428875 7.11124)
(25.6793 0.0273816 6.56848)
(24.1519 0.0219206 6.78991)
(23.4526 0.393651 8.00276)
(23.9814 0.940389 8.8463)
(24.2051 1.19629 8.17877)
(23.5026 1.29488 6.76537)
(22.2221 1.34531 5.39484)
(20.9736 1.3156 4.16369)
(19.9474 1.18149 3.04492)
(19.0836 1.01972 2.11431)
(18.4877 0.94186 1.394)
(18.2144 0.936689 0.829622)
(18.1988 0.941858 0.350687)
(18.4082 0.906173 -0.0720374)
(18.8334 0.852575 -0.440461)
(19.4173 0.800911 -0.768567)
(20.074 0.740528 -1.07611)
(20.7704 0.654733 -1.3809)
(21.49 0.554822 -1.66757)
(22.2911 0.450434 -1.95962)
(23.0175 0.382697 -2.18041)
(23.7201 0.179743 -2.7325)
(39.9989 -3.92595e-06 0.0730296)
(39.9909 6.38844e-05 0.215439)
(39.9711 0.000140795 0.359942)
(39.9389 0.000128655 0.508402)
(39.8942 8.73407e-05 0.660865)
(39.8375 0.000112102 0.818377)
(39.7687 0.000196112 0.981932)
(39.6864 0.000282814 1.15248)
(39.5888 0.000339768 1.33093)
(39.4748 0.000369722 1.51806)
(39.3434 0.000389803 1.71445)
(39.1936 0.000424057 1.92038)
(39.024 0.000488096 2.1358)
(38.8334 0.000591366 2.36018)
(38.6209 0.000734162 2.59238)
(38.3869 0.000894179 2.8306)
(38.133 0.00106687 3.07229)
(37.8629 0.00121531 3.31479)
(37.5833 0.0013858 3.55619)
(37.303 0.00142132 3.79903)
(37.0381 0.00154972 4.05574)
(36.7936 0.00109065 4.35471)
(36.6023 -0.000742614 4.75182)