/*--------------------------------*- C++ -*----------------------------------*\
| =========                 |                                                 |
| \\      /  F ield         | OpenFOAM: The Open Source CFD Toolbox           |
|  \\    /   O peration     | Version:  4.1                                   |
|   \\  /    A nd           | Web:      www.OpenFOAM.org                      |
|    \\/     M anipulation  |                                                 |
\*---------------------------------------------------------------------------*/
FoamFile
{
    version     2.0;
    format      ascii;
    class       volVectorField;
    location    "24";
    object      U;
}
// * * * * * * * * * * * * * * * * * * * * * * * * * * * * * * * * * * * * * //

dimensions      [0 1 -1 0 0 0 0];

internalField   nonuniform List<vector> 
4432
(
(-150663 -9014.53 -25657.6)
(-94310.6 12823.3 42627.9)
(-42455.7 39040.8 97314)
(-33679.2 3645.99 43563.1)
(-80013.5 11724.1 31729.5)
(-68595.8 13621.2 39758.4)
(-50034.6 6261.6 16998.4)
(-50167 4151.4 12033.4)
(-56231.6 1645.88 6572.39)
(-59039.8 -489.252 3341.75)
(-61511.4 -1718.11 1663.62)
(-63900.9 -2226.57 718.477)
(-65738.3 -2477.46 331.406)
(-67062 -2753.83 325.336)
(-67923.8 -2994.08 452.531)
(-67729.4 -3129.6 280.534)
(-66984.3 -3174.86 -162.356)
(-66455.1 -3207.07 -410.462)
(-66007.3 -3297.94 -636.143)
(-65332.1 -3366.2 -747.627)
(-64472.6 -3443.59 -892.052)
(-63479 -3509.05 -1019.61)
(-62333.9 -3563.59 -1154.97)
(-61014.5 -3608.38 -1287.36)
(-59518.4 -3643.6 -1417.26)
(-57853.1 -3667.08 -1540.82)
(-56047.9 -3676.28 -1654.13)
(-54128.8 -3667.1 -1754.46)
(-52135.7 -3634.21 -1841.27)
(-50101.8 -3571.05 -1914.72)
(-48079.6 -3470.3 -1976.27)
(-46142.3 -3324.53 -2027.42)
(-44375.5 -3128.55 -2081.77)
(-42865.3 -2891.68 -2152.21)
(-41651.1 -2647.77 -2201.3)
(-40663.1 -2420.97 -2237.08)
(-39930.1 -2206.16 -2278.1)
(-39439.1 -2006.19 -2331.04)
(-39186.5 -1825.43 -2404.93)
(-39158.9 -1668.18 -2496.27)
(-39346 -1534.77 -2581.08)
(-39695.2 -1421.34 -2632.51)
(-40093.8 -1318.3 -2643.96)
(-40434.1 -1205.55 -2603.99)
(-40650.6 -1051.38 -2484.72)
(-40559.8 -845.565 -2363.88)
(-40016.4 -644.723 -2243.62)
(-38298 -390.135 -1803.6)
(-34425.2 -69.6761 -1052.52)
(-30753.8 573.27 750.673)
(-35906.9 2522.83 3127.76)
(-62856.6 3916.88 1443.96)
(-70931.9 5317.26 -9514.03)
(-5681.87 2111.38 -6493.24)
(-156308 -2887.91 -13109.8)
(-142662 18030.1 15133.4)
(-126887 23249.1 21309.7)
(-109269 4401.56 17978.4)
(-119096 6811.41 9735.94)
(-122208 7951.3 10866.5)
(-110043 5556.54 4568.49)
(-109962 4472.35 3236.89)
(-111679 3006.21 1401.39)
(-112723 1767.43 531.048)
(-113335 1161.88 -14.2599)
(-113995 963.775 -425.819)
(-114669 857.099 -644.521)
(-115159 725.046 -645.949)
(-115236 615.163 -634.526)
(-114737 561.302 -862.025)
(-114002 553.962 -1173.8)
(-113491 555.049 -1327)
(-112981 526.212 -1484.26)
(-112302 510.216 -1571.15)
(-111521 487.06 -1671.48)
(-110668 469.491 -1758.82)
(-109728 459.199 -1841.91)
(-108697 457.026 -1913.34)
(-107575 462.421 -1974.18)
(-106370 476.868 -2021.76)
(-105096 501.766 -2053.31)
(-103768 538.81 -2066.97)
(-102396 589.643 -2061.68)
(-100987 655.861 -2037.44)
(-99542.6 738.291 -1995.79)
(-98064.5 836.532 -1937.4)
(-96549.2 948.191 -1864.59)
(-94987.7 1064.97 -1782.79)
(-93369.5 1175.57 -1695.37)
(-91691.3 1278.2 -1604.54)
(-89945.3 1375.07 -1510.29)
(-88123.8 1465.29 -1420.32)
(-86216.6 1546.74 -1348.29)
(-84215.5 1617.4 -1294.98)
(-82122 1676.07 -1250.81)
(-79923.4 1723.3 -1205.85)
(-77576.8 1761.87 -1155.55)
(-75029.3 1798.95 -1096.77)
(-72246.9 1848.64 -1026.95)
(-69173.7 1917.91 -969.12)
(-65765.6 1981.47 -940.905)
(-61896.9 2058.17 -848.165)
(-56978.3 2175.31 -570.833)
(-51506.4 2413.92 598.581)
(-52030.3 2987.97 2713.34)
(-71236.3 2748.57 2887.35)
(-64977 3664.13 -7582.73)
(19041.5 1525.53 -5833.57)
(-144754 -1351.51 -31720.2)
(-149623 2850.61 30363.8)
(-149777 12139.7 59092.2)
(-143775 -8076.51 -9858.37)
(-133501 193.46 15490)
(-143659 -410.011 19082.5)
(-143661 -2022.87 12340.6)
(-139570 -1410.76 10918)
(-140977 -2286.78 6696.38)
(-140143 -2416.93 4683.74)
(-139577 -2599.68 3272)
(-139249 -2656.81 2360.26)
(-138831 -2644.74 1954.11)
(-138364 -2622.99 1837.36)
(-137985 -2640.46 1768.82)
(-137319 -2680.24 1649.32)
(-136156 -2623.2 1434.44)
(-134908 -2512.01 1262.29)
(-133699 -2438.17 1063.16)
(-132410 -2357.98 916.972)
(-131098 -2277.66 759.841)
(-129757 -2192.74 625.267)
(-128401 -2103.27 499.4)
(-127022 -2006.55 394.317)
(-125621 -1903.49 312.199)
(-124206 -1794.42 260.98)
(-122799 -1679.21 246.822)
(-121415 -1557.13 275.397)
(-120077 -1427.27 351.158)
(-118797 -1288.88 476.341)
(-117590 -1142.19 651.326)
(-116467 -988.169 880.091)
(-115441 -823.343 1169.3)
(-114498 -647.781 1502.46)
(-113647 -480.3 1872.15)
(-112965 -329.524 2274.28)
(-112485 -189.115 2675.69)
(-112212 -58.3388 3084.31)
(-112158 55.7486 3499.5)
(-112335 151.486 3937.42)
(-112781 229.849 4413.65)
(-113550 293.262 4937.92)
(-114694 349.11 5512.17)
(-116275 403.346 6138.88)
(-118435 460.444 6813.33)
(-121267 549.214 7502.73)
(-124594 684.676 8094.97)
(-128148 859.767 8453.01)
(-130673 1226.6 8746.63)
(-133710 1994.06 9449.91)
(-140221 3079.47 9171.48)
(-156114 4996.26 1787.59)
(-182911 7421.08 -16909.7)
(-145287 3240.21 -8782.01)
(-129420 -7730.43 -50023.7)
(-145865 -11058.6 -23213.3)
(-144501 -5189.39 -6823.9)
(-145536 2883.61 -1313.06)
(-150964 257.656 -1238.39)
(-156862 2235.5 4836.01)
(-152190 1953.3 3554.15)
(-148448 2607.74 3205.08)
(-147030 2569.97 1816.98)
(-145224 2568.93 1202.8)
(-143762 2438.23 579.311)
(-142934 2371.68 47.9252)
(-142569 2311.6 -260.604)
(-142601 2240.07 -341.949)
(-142970 2136.99 -369.343)
(-143047 2016.44 -539.816)
(-142688 1992.09 -745.764)
(-142471 2016.12 -902.382)
(-142360 1996.91 -1067.82)
(-142162 1982.05 -1198.91)
(-141943 1963.69 -1340.43)
(-141682 1948.85 -1468.72)
(-141384 1938.68 -1590.5)
(-141033 1933.19 -1699.67)
(-140626 1931.6 -1793.29)
(-140162 1933.65 -1867.55)
(-139653 1939.44 -1918.2)
(-139102 1949.69 -1941.71)
(-138517 1965.5 -1935.61)
(-137897 1987.65 -1898.33)
(-137238 2016.88 -1826.58)
(-136543 2055.61 -1713.74)
(-135814 2107.11 -1551.74)
(-135049 2171.78 -1343.7)
(-134252 2236.59 -1096.19)
(-133451 2289.82 -824.309)
(-132690 2336.67 -540.967)
(-132022 2376.29 -246.615)
(-131492 2402.49 63.7488)
(-131147 2413.25 407.507)
(-131064 2408.92 804.814)
(-131336 2391.88 1267.34)
(-132049 2369.92 1800.15)
(-133292 2349.85 2402.99)
(-135205 2337.06 3075.79)
(-137939 2363.69 3796.57)
(-141555 2447.98 4464.82)
(-145871 2559.81 4924.74)
(-149617 2801.75 5139.23)
(-151963 3266.21 5540.47)
(-155544 3910.77 6926.35)
(-166503 5772.52 2074.71)
(-160258 9140.36 -5473.26)
(-130565 7769.09 -766.848)
(-140268 3310.87 -31906.3)
(-136362 -1061.08 -28231.1)
(-128342 -7320.11 -15460.3)
(-125132 1426.87 -13449.9)
(-124683 -1937.66 -8780.35)
(-125746 -2992.8 -2583.64)
(-125407 -3223.98 667.674)
(-123767 -2456.65 1983.81)
(-120594 -2239.42 1688.49)
(-117046 -1568.97 1542.78)
(-113837 -1221.62 1050.43)
(-111433 -928.91 353.44)
(-109509 -799.536 -254.35)
(-108384 -770.363 -769.051)
(-107912 -728.12 -1212.18)
(-107357 -771.096 -1458.59)
(-106525 -705.331 -1616.95)
(-105890 -634.826 -1852.64)
(-105421 -578.093 -2105.56)
(-104953 -538.486 -2386.17)
(-104515 -506.441 -2670.24)
(-104080 -482.944 -2953.2)
(-103655 -455.451 -3221.37)
(-103221 -428.319 -3473.86)
(-102778 -400.732 -3705.07)
(-102328 -376.365 -3910.79)
(-101888 -355.797 -4085.66)
(-101464 -339.93 -4225.82)
(-101059 -329.464 -4325.5)
(-100665 -325.01 -4378.42)
(-100259 -324.642 -4381.35)
(-99802.2 -326.891 -4315.02)
(-99289.1 -334.785 -4142.25)
(-98710.7 -343.834 -3979.43)
(-98037 -356.718 -3933.15)
(-97273.6 -387.845 -3779.25)
(-96401.2 -427.314 -3585.29)
(-95402.5 -488.791 -3388.95)
(-94273.1 -564.21 -3163.56)
(-93008.6 -650.134 -2903.62)
(-91643.5 -736.835 -2586.33)
(-90218.6 -813.724 -2208.55)
(-88748.9 -864.376 -1759.23)
(-87245.5 -872.311 -1219.05)
(-85757.3 -804.356 -613.681)
(-84348.3 -621.924 34.9289)
(-83042.2 -314.595 650.56)
(-81741.8 122.432 867.808)
(-79657.2 666.525 901.088)
(-76437 1167.67 550.293)
(-78941.7 3025.34 -703.793)
(-100379 5775.13 -5915.09)
(-112705 17235.8 -16239.3)
(-63766.6 9638.45 -1903.48)
(-97898.4 7823.18 -30621.4)
(-104019 5175.25 -26219.9)
(-95700.8 -3668.95 -22613.4)
(-100566 4669.54 -15477.7)
(-106761 1362.89 -16389.4)
(-107639 -296.662 -11094)
(-106727 -188.8 -3854.05)
(-107018 884.252 -1430.91)
(-106536 1144.51 -169.769)
(-104247 1848.25 670.867)
(-102330 2216.05 780.083)
(-101214 2518.96 530.564)
(-100578 2623.16 139.653)
(-100528 2621.96 -282.868)
(-101103 2652.8 -607.206)
(-101398 2597.81 -620.886)
(-101225 2668.91 -592.488)
(-101357 2745.51 -733.398)
(-101629 2802.44 -848.571)
(-101847 2838.08 -1013.65)
(-102098 2861.69 -1184.57)
(-102376 2870.41 -1357.54)
(-102695 2877.08 -1519.24)
(-103032 2878.77 -1666.66)
(-103381 2877.29 -1793.3)
(-103749 2869 -1895)
(-104152 2854.1 -1967.95)
(-104602 2832.45 -2011.01)
(-105105 2804.22 -2022.98)
(-105652 2769.63 -2001.66)
(-106223 2731.54 -1943.59)
(-106786 2692.01 -1840.47)
(-107336 2647.39 -1684.48)
(-107858 2600.18 -1496.01)
(-108342 2545.13 -1285.64)
(-108789 2473.18 -1063.2)
(-109184 2403.68 -828.937)
(-109514 2316.6 -565.743)
(-109773 2215.2 -286.159)
(-109968 2103.34 23.2475)
(-110127 1986.74 373.821)
(-110249 1869.67 756.411)
(-110298 1759.2 1159.21)
(-110219 1657.09 1588.05)
(-109962 1574.57 2041.19)
(-109454 1520.29 2502.22)
(-108506 1481.75 2939.57)
(-106792 1469.75 3208.23)
(-103676 1522.66 3281.88)
(-99171.8 1425.25 3380.74)
(-100878 1695.65 3202.73)
(-100434 848.357 -316.988)
(-92843.2 2343.92 -8922.41)
(13180.6 5730.16 -2213.66)
(-94662.4 -292.541 -5362.17)
(-99808.7 4284.25 -2412.9)
(-91012.8 3661.15 -10357.3)
(-95495.7 1900.78 -889.725)
(-99328.5 -2806.62 -5527.21)
(-98021.7 -4745.7 -5057.75)
(-98474 -3675.53 -4122.18)
(-97586.5 -2529.2 -2691.89)
(-96380.1 -1939.26 -1766.66)
(-94696.2 -1319.8 -814.697)
(-93650.4 -1074.03 -351.364)
(-93152.7 -877.499 51.4972)
(-92697.4 -848.766 -56.9427)
(-92630.9 -937.284 -413.737)
(-92881.8 -1043.61 -803.831)
(-92827.6 -1087.92 -989.833)
(-92474.1 -1039.56 -1166.46)
(-92307.7 -994.477 -1431.46)
(-92242.6 -956.067 -1647.71)
(-92145.1 -917.769 -1905.63)
(-92055.6 -882.137 -2160.22)
(-91985.9 -839.466 -2418.75)
(-91950.9 -790.717 -2640.67)
(-91952.3 -732.884 -2825.98)
(-91997.2 -666.927 -2958.16)
(-92105.5 -594.889 -3039.84)
(-92304 -520.738 -3069.26)
(-92616.8 -449.402 -3050.82)
(-93058.9 -387.318 -2985.44)
(-93633.2 -340.8 -2862.58)
(-94309.4 -312.494 -2675.84)
(-95048.9 -320.689 -2421.3)
(-96011.3 -392.492 -2107.9)
(-97280.8 -403.491 -1800.67)
(-98395.8 -271.498 -1539.9)
(-99363.5 -293.017 -1273.23)
(-100508 -374.479 -987.837)
(-101703 -451.614 -719.662)
(-102893 -574.073 -463.827)
(-104072 -727.505 -243.513)
(-105236 -916.606 -68.7135)
(-106405 -1135.11 74.1757)
(-107546 -1383.97 218.739)
(-108629 -1665.7 389.283)
(-109681 -1961.98 593.317)
(-110726 -2265.35 821.875)
(-111825 -2564.87 1014.27)
(-113073 -2847 1004.18)
(-113371 -3005.21 726.371)
(-113711 -2960.76 -103.916)
(-120074 -2440.51 -2039.73)
(-146363 -749.406 -7109.75)
(-187634 12453.3 -21306.4)
(-190214 22876.4 -13715.9)
(-94026.9 1344.07 -7218.93)
(-102481 6647.01 21.4223)
(-101844 5505.54 -2773.08)
(-108885 2155.33 -6098.88)
(-111850 -791.557 -7373.84)
(-107555 -2588.47 -5909.02)
(-105889 -1234.17 -3768.15)
(-106757 -46.5486 -1936.03)
(-107067 436.514 95.4398)
(-106448 998.91 1226.16)
(-106489 1235.13 1745.82)
(-106728 1427.91 2003.56)
(-107043 1456.29 1941)
(-107580 1381.13 1684.88)
(-108250 1295.44 1409.08)
(-108564 1258.7 1410.46)
(-108690 1293.92 1340.76)
(-109015 1325.07 1182.36)
(-109381 1347.28 1066.11)
(-109703 1364.16 927.289)
(-110013 1373.96 790.446)
(-110310 1384.79 660.385)
(-110601 1395.81 553.488)
(-110900 1408.59 480.924)
(-111223 1422.11 447.872)
(-111588 1435.29 455.308)
(-112019 1445.97 500.046)
(-112534 1451.57 578.196)
(-113143 1448.28 687.741)
(-113847 1432.78 827.575)
(-114633 1406.26 989.001)
(-115483 1355.7 1167.35)
(-116410 1257.9 1371.74)
(-117395 1223.52 1586.65)
(-118401 1325.88 1798.79)
(-119399 1307.95 2013.59)
(-120356 1259.1 2230.92)
(-121306 1240.95 2452.63)
(-122244 1210.38 2670.28)
(-123126 1181.25 2865.4)
(-123973 1150.56 3022.99)
(-124820 1120.89 3152.76)
(-125658 1087.89 3272.86)
(-126449 1043.81 3391.86)
(-127200 989.662 3503.91)
(-127897 910.099 3591.75)
(-128460 769.776 3615.95)
(-128592 537.913 3486.89)
(-127295 293.787 3081.03)
(-124261 87.3014 2315.22)
(-120654 -585.435 -676.269)
(-123669 -2655.33 -6379.33)
(-99544.3 6053.78 -16635.9)
(-25911.2 4207.83 -8642.09)
(-101902 -4221.78 -6309.73)
(-111141 -3852.8 -3428.83)
(-109582 -3358.79 -2934.8)
(-111794 -4370.38 -6184.51)
(-111923 -6104.23 -5145.26)
(-110074 -6289.99 -4564.03)
(-110321 -5365.96 -2949.86)
(-110344 -4337.66 -1936.04)
(-110137 -3343.18 -1015.7)
(-108925 -2617.57 -718.308)
(-107596 -2396.03 -868.569)
(-107017 -2457.25 -662.52)
(-106903 -2526.79 -650.521)
(-106883 -2633.94 -840.691)
(-106844 -2707.19 -1074.39)
(-106476 -2766.27 -1219.15)
(-105976 -2800.09 -1485.87)
(-105522 -2836.16 -1833.58)
(-105065 -2873.07 -2177.1)
(-104548 -2902.47 -2528.84)
(-103981 -2928.22 -2890.32)
(-103363 -2938.19 -3238.54)
(-102698 -2933.37 -3553.41)
(-101995 -2902.86 -3805.64)
(-101266 -2849.62 -3985.57)
(-100536 -2770.15 -4093.1)
(-99831.8 -2666.37 -4130.44)
(-99178.7 -2536.4 -4091.21)
(-98576.9 -2379.33 -3983.3)
(-98024.6 -2206.25 -3820.95)
(-97517.2 -2031.79 -3612.3)
(-97042.6 -1863 -3385.15)
(-96657.7 -1682.99 -3176.61)
(-96385.7 -1445.41 -2863.21)
(-96097.1 -1137.62 -2347.2)
(-95756 -823.131 -1913.77)
(-95417.4 -507.524 -1510.31)
(-95066.3 -176.798 -1099.64)
(-94693.4 158.715 -704.305)
(-94312.2 499.312 -324.142)
(-93933.7 831.681 23.9289)
(-93576.9 1148.02 362.035)
(-93255.6 1440.95 717.591)
(-93004.3 1691.71 1092.47)
(-92916.3 1878.34 1494.41)
(-93123.3 1963.93 1950.3)
(-93800.8 1873.52 2446.62)
(-95037.6 1524.71 2937.12)
(-96297.9 930.285 3375.18)
(-97900.7 341.935 3559.21)
(-108334 -458.68 3938.52)
(-140686 -1603.42 3064.41)
(-175616 3574.22 -5232.69)
(-145864 -412.136 8039.09)
(-94914.4 -1084.57 -8583.36)
(-102036 -554.814 -10803.4)
(-102938 -103.492 -9446.33)
(-107554 -981.717 -8245.77)
(-107577 -2599.77 -4525.5)
(-103881 -2573.16 -1769.65)
(-103828 -1424.52 -894.13)
(-104242 -254.228 -581.677)
(-104603 896.712 346.005)
(-104461 1779.12 684.968)
(-104247 2091.09 909.776)
(-104181 2125.56 1207.6)
(-104259 2154.84 1336.9)
(-104447 2126.02 1287.02)
(-104631 2124.06 1230.66)
(-104518 2132.12 1235.65)
(-104282 2167.91 1064.02)
(-104143 2199.07 800.718)
(-104027 2223.07 550.486)
(-103880 2247.63 286.708)
(-103708 2267.45 21.9504)
(-103505 2294.03 -235.78)
(-103279 2324.12 -458.848)
(-103019 2368.09 -627.316)
(-102743 2420.71 -730.921)
(-102465 2483.92 -768.221)
(-102203 2554.03 -741.871)
(-101972 2631.7 -654.971)
(-101782 2716.35 -513.268)
(-101645 2794.42 -320.878)
(-101550 2851.01 -90.2533)
(-101454 2881.14 164.1)
(-101362 2901.67 448.729)
(-101296 2958.34 775.895)
(-101228 3066.9 1133.63)
(-101138 3162.71 1522.98)
(-101018 3240.15 1925.46)
(-100850 3319.98 2320)
(-100635 3394.59 2737.91)
(-100374 3466.19 3167.4)
(-100078 3526.13 3591.19)
(-99741 3571.08 4020.95)
(-99354.5 3599.92 4471.08)
(-98895.3 3603.51 4924.95)
(-98337.8 3573.18 5346)
(-97673.9 3485.46 5716.99)
(-96937.2 3267.68 5995.95)
(-96055.6 2837.33 6152.58)
(-94446 2175.18 6154.63)
(-92768.5 1435.17 5968.97)
(-96283.8 -581.589 5305.69)
(-114079 -2787.55 1079.6)
(-107098 3081.43 -13505.9)
(-46057.8 2535.75 -4943.16)
(-115545 -2811.21 -1990.06)
(-120300 -3556.82 -6276.33)
(-120005 -3817.68 -4867.87)
(-121962 -3629.12 -5583.85)
(-122296 -4399.71 -4231.95)
(-121293 -4429.96 -4309.31)
(-121314 -4259.03 -3621.09)
(-121290 -4230.06 -2896.79)
(-121316 -4077.37 -1989.85)
(-121010 -3830.99 -1423.52)
(-120175 -3566.76 -1136.62)
(-119442 -3581.52 -1054.65)
(-119209 -3640.8 -1057.56)
(-119043 -3716.87 -1195.87)
(-118755 -3770.35 -1277.65)
(-118274 -3814.79 -1384.91)
(-117709 -3846.07 -1606.01)
(-117128 -3886.31 -1896.65)
(-116537 -3923.03 -2216.22)
(-115912 -3965.23 -2566.11)
(-115252 -4004.45 -2951.01)
(-114538 -4045.8 -3335.1)
(-113772 -4082.97 -3690.37)
(-112958 -4118.76 -3968.98)
(-112122 -4150.11 -4162.61)
(-111284 -4172.04 -4263.28)
(-110455 -4181.21 -4277.12)
(-109652 -4183.45 -4210.26)
(-108899 -4177.39 -4075.09)
(-108203 -4152.94 -3886.77)
(-107559 -4107.96 -3655.5)
(-106951 -4040.37 -3405.12)
(-106373 -3934.7 -3166.77)
(-105788 -3785.47 -2893.43)
(-105176 -3616.75 -2531.5)
(-104577 -3433.75 -2127.91)
(-103990 -3225.84 -1694.14)
(-103386 -2992.94 -1226.28)
(-102767 -2737.12 -733.708)
(-102149 -2459.62 -214.273)
(-101553 -2167.59 333.108)
(-101004 -1866.06 910.871)
(-100530 -1565.08 1523.62)
(-100192 -1276.76 2170.87)
(-100084 -1017.46 2852.44)
(-100338 -827.032 3581.17)
(-101156 -773.28 4386.87)
(-102694 -928.931 5303.25)
(-104695 -1284.98 6411.47)
(-107491 -1872.35 7799.01)
(-121896 -2303.45 10488.1)
(-159798 -2464.2 14974.1)
(-191967 -1044.37 14324.3)
(-154085 -59768.9 9123.74)
(-102029 983.357 1241.19)
(-103089 570.038 -4918.93)
(-102687 353.143 -4516.04)
(-105015 694.257 -3254.32)
(-105375 142.918 810.63)
(-103169 414.486 1572.5)
(-103477 719.703 1351.59)
(-103668 826.205 924.57)
(-103691 1190.92 915.111)
(-103569 1662.23 1197.91)
(-103280 2086.84 1633.61)
(-103166 2166.66 1908.76)
(-103358 2190.53 2018.64)
(-103659 2179 1994.03)
(-103877 2184.53 2013.29)
(-103926 2194.67 2002.49)
(-103929 2215.47 1833.2)
(-103979 2220.42 1576.14)
(-104042 2228.1 1287.21)
(-104095 2230.06 952.465)
(-104128 2238.47 586.273)
(-104123 2250.14 210.733)
(-104080 2276.45 -127.76)
(-104001 2312.69 -398.591)
(-103921 2360.43 -575.861)
(-103862 2420.07 -659.244)
(-103846 2489.21 -658.525)
(-103889 2556.48 -587.017)
(-103996 2620.97 -458.563)
(-104168 2689.47 -281.563)
(-104400 2757.73 -54.2068)
(-104656 2824.73 211.548)
(-104926 2905.63 477.005)
(-105219 3002.32 750.555)
(-105518 3086.71 1048.71)
(-105822 3153.29 1365.45)
(-106125 3212.95 1711.51)
(-106401 3264.11 2082.33)
(-106643 3304.15 2476.04)
(-106856 3331.52 2889.32)
(-107039 3340.48 3327.56)
(-107178 3329.28 3789.33)
(-107256 3292.74 4266.65)
(-107266 3222.78 4746.18)
(-107217 3102.28 5201.07)
(-107159 2886.57 5607.58)
(-107241 2497.09 5956.09)
(-107626 1856.67 6288.97)
(-108170 982.245 6751.38)
(-109263 162.181 7434.12)
(-116723 -1297.15 8611.74)
(-143630 -3390.74 8516.38)
(-175013 -429.694 5154.09)
(-217382 -16852.9 -2978.75)
(-109964 -2439.11 -1153.33)
(-110020 -3051.82 -4238.13)
(-110698 -3608.72 -4336.3)
(-111709 -2599.53 -4723.74)
(-112121 -2179.62 -3274.93)
(-112180 -1811.19 -2460.13)
(-112304 -1986.36 -1641.31)
(-112406 -2286.11 -1037.88)
(-112554 -2421.78 -655.012)
(-112153 -2200.96 -415.263)
(-111408 -2032.61 43.9126)
(-111088 -2015.58 96.9416)
(-111099 -2002.81 42.5422)
(-111071 -1980.3 -27.9618)
(-110948 -1950.44 -72.7827)
(-110739 -1906.42 -181.217)
(-110490 -1856.51 -386.716)
(-110238 -1817.04 -684.727)
(-109986 -1778.66 -1021.33)
(-109722 -1749.86 -1423.24)
(-109446 -1722.2 -1865.56)
(-109138 -1711.04 -2335.07)
(-108786 -1712.78 -2764.17)
(-108406 -1735.89 -3106.4)
(-108042 -1767.34 -3320.73)
(-107714 -1806.16 -3408.84)
(-107448 -1851.37 -3388.35)
(-107261 -1903.12 -3292.51)
(-107153 -1958.38 -3145.53)
(-107115 -2016.71 -2952.25)
(-107146 -2072.69 -2725.52)
(-107244 -2114.75 -2490.13)
(-107386 -2136.07 -2233.84)
(-107524 -2135 -1948.35)
(-107632 -2122.51 -1657.84)
(-107724 -2102.76 -1378.28)
(-107806 -2072.21 -1098.08)
(-107865 -2028.95 -808.185)
(-107891 -1970.08 -510.707)
(-107878 -1895.05 -208.733)
(-107831 -1802.77 89.1706)
(-107751 -1690.47 369.711)
(-107635 -1557.4 614.225)
(-107473 -1405.73 800.062)
(-107250 -1239.84 878.87)
(-106956 -1071.22 780.483)
(-106515 -898.742 529.57)
(-105800 -727.036 197.53)
(-104126 -519.978 -101.415)
(-101870 -132.957 529.578)
(-104889 11.8469 3021.47)
(-118265 -811.012 7092.26)
(-134320 3719.19 30196.9)
(-144390 1537.03 3958.82)
(-107516 -90.8989 -1174.75)
(-105709 -655.472 -5324.55)
(-105349 -1253.52 -5871.42)
(-104547 -214.584 -6323.05)
(-105183 406.442 -3308.21)
(-105920 884.039 -1924.45)
(-106718 646.563 -1331.06)
(-106631 296.445 -853.159)
(-106363 155.316 -602.348)
(-105955 352.61 -372.555)
(-105736 457.341 -100.712)
(-105902 390.474 -89.1105)
(-106276 311.9 -177.505)
(-106647 230.564 -248.619)
(-106917 151.641 -295.509)
(-107093 82.6955 -415.618)
(-107228 17.7358 -652.716)
(-107352 -51.603 -957.446)
(-107456 -114.127 -1303.24)
(-107519 -179.429 -1699.61)
(-107545 -238.459 -2142.09)
(-107510 -305.201 -2607.81)
(-107420 -377.452 -3043.02)
(-107300 -463.125 -3384.68)
(-107196 -547.133 -3593.49)
(-107155 -627.874 -3673.31)
(-107211 -703.674 -3646.98)
(-107376 -775.024 -3540.21)
(-107645 -839.465 -3383.56)
(-107997 -896.798 -3202.07)
(-108408 -941.67 -2995.78)
(-108866 -964.212 -2776.95)
(-109343 -960.429 -2560.54)
(-109787 -928.544 -2339.92)
(-110168 -880.723 -2114.3)
(-110475 -825.174 -1899.9)
(-110700 -760.501 -1690.84)
(-110820 -685.497 -1491.46)
(-110821 -600.543 -1303.2)
(-110671 -505.78 -1132.07)
(-110339 -400.703 -980.694)
(-109787 -282.756 -862.062)
(-108967 -153.893 -793.992)
(-107824 -22.954 -793.068)
(-106320 102.194 -893.865)
(-104420 209.047 -1142.84)
(-102111 275.443 -1545.34)
(-99303.1 298.62 -2009.73)
(-95470.8 389.368 -2345.51)
(-90283.9 554.741 -2503.02)
(-87831 90.6199 -1634.21)
(-94251.5 -1015.13 3285.34)
(-99092.8 3385.07 29213.9)
(-58898.4 822.163 11583.8)
(-104393 -1203.95 -7446.4)
(-102439 -1474.2 -6443.52)
(-103085 -2144.87 -6218.25)
(-102585 -1859.38 -5615.82)
(-101409 -1072.46 -4806.09)
(-100843 -469.137 -3320.11)
(-101100 -521.814 -2073.47)
(-101656 -549.048 -1435.51)
(-102326 -342.08 -1115.37)
(-102040 48.499 -697.773)
(-101308 211.104 -479.063)
(-101104 250.748 -507.726)
(-101179 285.777 -504.447)
(-101267 320.74 -475.657)
(-101323 364.154 -480.915)
(-101325 410.145 -552.628)
(-101292 448.763 -714.651)
(-101245 484.528 -966.898)
(-101203 507.303 -1288.01)
(-101144 526.386 -1701.22)
(-101024 537.905 -2190.66)
(-100803 554.417 -2750)
(-100456 566.234 -3292.08)
(-100036 583.071 -3726.77)
(-99629.5 603.607 -3969.12)
(-99325.2 629.136 -4031.53)
(-99163.1 655.925 -3950.73)
(-99160.7 682.996 -3767.95)
(-99305.8 703.615 -3523.17)
(-99582 706.808 -3242.18)
(-99990.7 708.381 -2929.45)
(-100476 722.805 -2605.15)
(-100984 732.313 -2253.82)
(-101501 733.632 -1864.28)
(-102004 725.869 -1459.47)
(-102468 710.474 -1049.92)
(-102869 689.889 -656.217)
(-103194 672.658 -285.272)
(-103457 657.422 62.2659)
(-103641 641.108 375.232)
(-103727 624.167 639.83)
(-103677 606.935 848.011)
(-103451 589.081 1004.12)
(-103010 571.42 1140.55)
(-102335 552.838 1265.42)
(-101452 529.263 1362.42)
(-100428 490.063 1485.17)
(-99138.8 432.501 1737.99)
(-96814.9 324.401 2170.93)
(-93071.2 144.639 2693.06)
(-90615.8 -303.491 2778.79)
(-89547.7 -39.0557 5079.8)
(-92117.7 5507.68 30759.3)
(-47413.4 3417.7 15461.9)
(-108597 491.421 -5723.87)
(-106144 212.424 -4974.09)
(-106625 -426.78 -4404.59)
(-104615 -154.327 -5039.94)
(-103352 650.595 -4228.74)
(-103789 1232.91 -2937.08)
(-104544 1116.35 -1816.82)
(-104683 1044.42 -924.438)
(-104976 1224.49 -127.243)
(-104863 1583.82 379.882)
(-104523 1708.29 563.857)
(-104422 1706 562.29)
(-104483 1699.38 586.257)
(-104545 1690.32 634.465)
(-104545 1687.69 655.95)
(-104484 1686.76 600.494)
(-104381 1678.58 451.298)
(-104254 1665.2 217.07)
(-104109 1633.83 -95.6626)
(-103933 1590.8 -497.288)
(-103705 1533.12 -978.913)
(-103361 1467.53 -1518.95)
(-102884 1384.67 -2054.57)
(-102304 1295.26 -2478.33)
(-101696 1200.62 -2718.12)
(-101140 1105.27 -2773.76)
(-100676 1008.83 -2678.64)
(-100330 913.05 -2468.86)
(-100106 813.335 -2194.99)
(-99973.9 700.514 -1898.96)
(-99920.8 591.941 -1579.47)
(-99934.3 504.05 -1263.97)
(-99984.1 420.396 -946.043)
(-100051 337.912 -629.05)
(-100127 255.606 -338.651)
(-100191 174.802 -74.5218)
(-100212 99.2584 167.852)
(-100183 34.133 369.152)
(-100080 -17.0072 546.387)
(-99889.1 -56.2376 699.395)
(-99602.8 -82.0613 828.91)
(-99215 -93.1842 945.624)
(-98723.1 -90.1428 1067.58)
(-98137.1 -69.4029 1229.8)
(-97464.8 -27.7138 1445.63)
(-96736.8 33.8839 1723.05)
(-96033.5 110.58 2133.07)
(-95313.4 211.437 2807.12)
(-93495.4 300.097 3558.77)
(-90090.5 269.747 4242.85)
(-88646.8 -65.8441 4466.74)
(-93317.4 321.737 6598.56)
(-86528.6 4961.2 31230.4)
(-20779.2 3051.66 18954.6)
(-107983 -1796.17 -11126.4)
(-106195 -1767.55 -7581.24)
(-106753 -2108.35 -5868.66)
(-106318 -2297.08 -4137.28)
(-105067 -1712.91 -3626.38)
(-104126 -1450.26 -3279.05)
(-104479 -1669.34 -2888.58)
(-105073 -1618.62 -2799.01)
(-105209 -1236.34 -2357.18)
(-104714 -931.205 -1523.36)
(-104269 -830.903 -1164)
(-104145 -825.392 -987.575)
(-104146 -829.689 -810.136)
(-104175 -839.319 -661.236)
(-104184 -841.647 -562.393)
(-104145 -844.087 -536.292)
(-104038 -845.904 -610.889)
(-103862 -846.088 -787.876)
(-103630 -848.762 -1092.72)
(-103324 -844.121 -1522.05)
(-102884 -836.708 -2104.31)
(-102195 -814.284 -2813.4)
(-101157 -783.522 -3558.04)
(-99805.7 -735.01 -4113.83)
(-98323.2 -673.892 -4349.22)
(-96898.5 -596.031 -4277.33)
(-95621.3 -505.178 -4007.46)
(-94538.1 -402.581 -3629.14)
(-93649.6 -297.883 -3212.92)
(-92911.9 -206.845 -2820.65)
(-92318.9 -119.388 -2479.3)
(-91855.8 -31.0501 -2184.14)
(-91463.6 60.5446 -1955.43)
(-91116.1 149.509 -1791.11)
(-90794.3 229.603 -1687.06)
(-90472.8 302.827 -1626.55)
(-90130.9 370.678 -1593.39)
(-89793.4 429.857 -1608.63)
(-89412.4 478.84 -1654.61)
(-88976.2 518.726 -1735.5)
(-88487.7 549.283 -1861.62)
(-87936.3 564.67 -2038.53)
(-87299.9 560.916 -2255.93)
(-86547.5 533.215 -2473.95)
(-85615.5 476.219 -2634.08)
(-84437.8 391.327 -2650.42)
(-82990.2 290.55 -2338.97)
(-81076.6 205.856 -1400.35)
(-78209.6 141.716 507.682)
(-73310.7 133.813 2484.68)
(-70297.9 -19.9774 3391.74)
(-77901.3 -213.248 4425.81)
(-72779 7189.77 14790.5)
(-4949.07 4731.24 9109.09)
(-103458 905.365 -7751.82)
(-101922 985.168 -3563.25)
(-102716 692.157 -1375.54)
(-101418 550.325 -262.149)
(-99879.7 1209.68 -379.74)
(-99900.4 1510.92 -843.64)
(-100541 1256.34 -312.845)
(-100616 1267.38 129.743)
(-100597 1653.31 746.668)
(-100394 1988.72 1351.42)
(-100140 2110.82 1654.7)
(-100017 2120.91 1841.95)
(-99973 2114.26 2021.57)
(-99955.8 2099 2174.19)
(-99923.5 2086.89 2280.21)
(-99873.4 2070.06 2315.35)
(-99809 2046.91 2260.59)
(-99752.1 2017.75 2098.45)
(-99719.5 1978.75 1812.09)
(-99708 1939.18 1381.64)
(-99658.6 1892.9 796.878)
(-99439.5 1850.15 60.7286)
(-98944.6 1801.34 -738.352)
(-98264.9 1749.43 -1406.96)
(-97549.6 1691.62 -1795.41)
(-96941.9 1638.23 -1898.57)
(-96498.6 1591.56 -1795.78)
(-96242.3 1555.08 -1563.62)
(-96163 1522.55 -1273.16)
(-96172 1481.59 -972.328)
(-96232.8 1445.54 -679.074)
(-96339.6 1420.37 -402.514)
(-96471.5 1405.34 -157.754)
(-96610.9 1395.13 49.2707)
(-96744.2 1384.13 205.03)
(-96854.1 1375.95 321.26)
(-96932.5 1372.74 398.132)
(-96971.1 1373.74 424.71)
(-96961.1 1379.16 395.071)
(-96884.9 1390.64 309.114)
(-96717.1 1407.98 173.821)
(-96425 1429.98 13.8554)
(-95963.2 1457.36 -154.191)
(-95267.4 1485.96 -305.504)
(-94269.3 1505.84 -386.241)
(-92920.1 1514.93 -308.317)
(-91176.1 1522.2 52.4735)
(-88853.9 1548.82 828.065)
(-85271 1565.61 1986.64)
(-80235.1 1563.49 3529.75)
(-76343.8 1434.37 4949.61)
(-84343.1 827.884 4166.94)
(-73425 4343.71 6854.73)
(39641.3 3303.22 6154.86)
(-106388 -1784.6 -11857)
(-107327 -1488 -7627.57)
(-108307 -1884.26 -5309.2)
(-109658 -2350.77 -3723.9)
(-109921 -2270.25 -3116.51)
(-109682 -2597.58 -3254.84)
(-110236 -2615.04 -3273.13)
(-110707 -2354 -2990.44)
(-110557 -2071.24 -2398.14)
(-110320 -2015.56 -1933.86)
(-110271 -1994.04 -1739.21)
(-110262 -1996.09 -1609.33)
(-110303 -1994.01 -1491.82)
(-110362 -1990.31 -1402.01)
(-110407 -1977.1 -1356.21)
(-110416 -1958.31 -1375.13)
(-110373 -1929.89 -1482.1)
(-110308 -1896.82 -1711.61)
(-110235 -1851.97 -2107.66)
(-110142 -1801.6 -2691.02)
(-109974 -1732.49 -3492.08)
(-109562 -1649.84 -4513.89)
(-108694 -1559.74 -5645.23)
(-107358 -1489.63 -6518.82)
(-105808 -1438.01 -6815.42)
(-104309 -1398.15 -6556.2)
(-102958 -1353.57 -5994.06)
(-101744 -1296.21 -5299.05)
(-100650 -1233.22 -4568.54)
(-99643.1 -1166.6 -3873.24)
(-98682.2 -1081.19 -3260.99)
(-97728.8 -981.598 -2721.08)
(-96750.6 -873.742 -2249.67)
(-95731 -759.475 -1852.64)
(-94655 -645.781 -1530.87)
(-93507.2 -535.145 -1285.76)
(-92279.5 -426.998 -1117.03)
(-90971.8 -321.715 -1029.93)
(-89589.7 -218.06 -1027.43)
(-88141.4 -114.009 -1104.9)
(-86676 -9.51097 -1270.78)
(-85231.2 92.093 -1517.03)
(-83844.1 185.984 -1822.19)
(-82550.9 262.132 -2156.57)
(-81356.2 305.911 -2477.86)
(-80239.2 291.1 -2706.23)
(-79044.2 194.765 -2725.42)
(-77230.5 12.423 -2384.21)
(-73854.3 -275.055 -1646.46)
(-67819.2 -255.043 -941.099)
(-66889.5 -580.518 -1342.24)
(-84024.8 -1684.64 -4594.46)
(-82986.3 796.51 -13640.6)
(-10779.8 1797.32 -2512.18)
(-99974.8 1249.91 -8415.4)
(-100128 1795.54 -3694.08)
(-100847 1504.02 -1364.4)
(-101274 1082.16 304.217)
(-100909 1224.35 173.528)
(-100280 941.021 -193.831)
(-99909.5 938.195 484.906)
(-99867 1230.86 974.716)
(-99688.4 1586.98 1401.9)
(-99485.3 1713.81 1751.43)
(-99293.3 1781.96 1987.99)
(-99163 1802.4 2204.55)
(-99119.4 1816.72 2403.11)
(-99143.5 1826.44 2578.01)
(-99204.2 1840.18 2705.61)
(-99292.9 1853.6 2767.55)
(-99407.6 1870.71 2734.78)
(-99558.7 1887.21 2568.23)
(-99750.3 1911.9 2222.86)
(-99961.1 1937.46 1662.38)
(-100108 1979.01 865.62)
(-99981.2 2031.37 -190.612)
(-99269.8 2091 -1385.53)
(-97950.9 2141.46 -2347.53)
(-96347.4 2173.58 -2722.21)
(-94847.8 2180.08 -2525)
(-93645 2170.74 -2011.32)
(-92794.9 2151.94 -1360.97)
(-92291.4 2116.43 -681.045)
(-92057.5 2065.64 -31.6586)
(-92027 2020.89 530.929)
(-92151.1 1980.91 1037.53)
(-92361.1 1946.55 1479.09)
(-92639.3 1919.06 1860.26)
(-92966.5 1893.43 2187.8)
(-93322.3 1869.97 2456.85)
(-93701.5 1853.13 2663.94)
(-94102.9 1845.64 2798.55)
(-94524.9 1851.51 2847.22)
(-94955.9 1875.63 2798.09)
(-95369.4 1917.31 2638.73)
(-95720.7 1971.09 2359.09)
(-95947.9 2030.24 1962.86)
(-95976.1 2082.64 1471.31)
(-95705 2108.62 913.249)
(-95019.8 2074.54 345.606)
(-93763.5 1944.75 -148.802)
(-91576 1695.33 -495.663)
(-87596 1289.05 -684.883)
(-81987.1 1131.95 -545.37)