/*--------------------------------*- C++ -*----------------------------------*\
| =========                 |                                                 |
| \\      /  F ield         | OpenFOAM: The Open Source CFD Toolbox           |
|  \\    /   O peration     | Version:  4.1                                   |
|   \\  /    A nd           | Web:      www.OpenFOAM.org                      |
|    \\/     M anipulation  |                                                 |
\*---------------------------------------------------------------------------*/
FoamFile
{
    version     2.0;
    format      ascii;
    class       volScalarField;
    location    "32";
    object      p;
}
// * * * * * * * * * * * * * * * * * * * * * * * * * * * * * * * * * * * * * //

dimensions      [0 2 -2 0 0 0 0];

internalField   nonuniform List<scalar> 
4432
(
-2.65774e+10
-2.9831e+10
-2.68062e+10
-1.49409e+10
-1.60803e+10
-1.95474e+10
-1.84657e+10
-1.78928e+10
-1.76737e+10
-1.75844e+10
-1.73738e+10
-1.71087e+10
-1.68821e+10
-1.67344e+10
-1.66863e+10
-1.66588e+10
-1.65339e+10
-1.63652e+10
-1.62014e+10
-1.60523e+10
-1.58977e+10
-1.5741e+10
-1.5582e+10
-1.54221e+10
-1.52631e+10
-1.51071e+10
-1.49553e+10
-1.48086e+10
-1.46667e+10
-1.45287e+10
-1.43934e+10
-1.42601e+10
-1.41288e+10
-1.39988e+10
-1.38702e+10
-1.37463e+10
-1.36305e+10
-1.35289e+10
-1.34498e+10
-1.34036e+10
-1.34021e+10
-1.34545e+10
-1.35618e+10
-1.37138e+10
-1.38904e+10
-1.40498e+10
-1.41033e+10
-1.39202e+10
-1.34003e+10
-1.27549e+10
-1.29741e+10
-1.532e+10
-1.76982e+10
-9.21121e+09
-2.52806e+10
-2.54494e+10
-2.33567e+10
-1.90625e+10
-1.61777e+10
-1.87686e+10
-1.86383e+10
-1.8e+10
-1.77838e+10
-1.77322e+10
-1.74871e+10
-1.71466e+10
-1.68757e+10
-1.6735e+10
-1.66989e+10
-1.66653e+10
-1.65275e+10
-1.63556e+10
-1.6201e+10
-1.60545e+10
-1.5901e+10
-1.57461e+10
-1.55888e+10
-1.54307e+10
-1.52734e+10
-1.51188e+10
-1.49682e+10
-1.48223e+10
-1.46808e+10
-1.45427e+10
-1.44069e+10
-1.42726e+10
-1.41403e+10
-1.40098e+10
-1.3882e+10
-1.37587e+10
-1.36434e+10
-1.35422e+10
-1.3464e+10
-1.34192e+10
-1.34194e+10
-1.34736e+10
-1.35825e+10
-1.37347e+10
-1.39063e+10
-1.40517e+10
-1.40771e+10
-1.3839e+10
-1.32328e+10
-1.24698e+10
-1.26387e+10
-1.53089e+10
-1.83533e+10
-1.10543e+10
-2.27859e+10
-2.17298e+10
-2.01307e+10
-2.02487e+10
-1.69552e+10
-1.78207e+10
-1.89583e+10
-1.84193e+10
-1.80565e+10
-1.79119e+10
-1.75763e+10
-1.72344e+10
-1.69339e+10
-1.67079e+10
-1.661e+10
-1.6612e+10
-1.65458e+10
-1.63834e+10
-1.62164e+10
-1.60558e+10
-1.58988e+10
-1.57401e+10
-1.55791e+10
-1.54166e+10
-1.52545e+10
-1.50949e+10
-1.49393e+10
-1.4789e+10
-1.4644e+10
-1.45038e+10
-1.43672e+10
-1.42341e+10
-1.41066e+10
-1.39818e+10
-1.38544e+10
-1.37304e+10
-1.36166e+10
-1.3519e+10
-1.34455e+10
-1.34039e+10
-1.34016e+10
-1.34452e+10
-1.3534e+10
-1.36531e+10
-1.37752e+10
-1.38629e+10
-1.38186e+10
-1.34799e+10
-1.27786e+10
-1.20611e+10
-1.25759e+10
-1.56415e+10
-1.78433e+10
-9.94279e+09
-2.29664e+10
-2.22779e+10
-2.03932e+10
-1.85661e+10
-1.69584e+10
-1.79332e+10
-1.89584e+10
-1.83234e+10
-1.80742e+10
-1.7911e+10
-1.75909e+10
-1.72292e+10
-1.69104e+10
-1.6687e+10
-1.66125e+10
-1.66352e+10
-1.65521e+10
-1.63708e+10
-1.6214e+10
-1.60576e+10
-1.59029e+10
-1.57456e+10
-1.55861e+10
-1.54253e+10
-1.52649e+10
-1.51071e+10
-1.49532e+10
-1.48045e+10
-1.46611e+10
-1.45223e+10
-1.43865e+10
-1.4253e+10
-1.41225e+10
-1.3995e+10
-1.38701e+10
-1.37496e+10
-1.36375e+10
-1.3542e+10
-1.34723e+10
-1.34352e+10
-1.34377e+10
-1.34858e+10
-1.35777e+10
-1.36976e+10
-1.38159e+10
-1.38859e+10
-1.38106e+10
-1.34412e+10
-1.27007e+10
-1.19538e+10
-1.25942e+10
-1.60701e+10
-1.8324e+10
-8.90453e+09
-2.24102e+10
-2.00718e+10
-1.71143e+10
-1.93773e+10
-1.7074e+10
-1.67961e+10
-1.75603e+10
-1.79091e+10
-1.80348e+10
-1.79605e+10
-1.76487e+10
-1.732e+10
-1.69811e+10
-1.67031e+10
-1.65874e+10
-1.65736e+10
-1.65033e+10
-1.63558e+10
-1.62055e+10
-1.60498e+10
-1.58935e+10
-1.57342e+10
-1.55717e+10
-1.54069e+10
-1.52417e+10
-1.50782e+10
-1.49185e+10
-1.47639e+10
-1.46147e+10
-1.44701e+10
-1.43269e+10
-1.41816e+10
-1.40364e+10
-1.39009e+10
-1.37717e+10
-1.36435e+10
-1.35291e+10
-1.3434e+10
-1.3367e+10
-1.33328e+10
-1.33387e+10
-1.33926e+10
-1.3493e+10
-1.36211e+10
-1.37436e+10
-1.38078e+10
-1.37148e+10
-1.33278e+10
-1.25839e+10
-1.18358e+10
-1.22997e+10
-1.51754e+10
-1.7651e+10
-9.13435e+09
-2.16833e+10
-2.09301e+10
-1.88762e+10
-1.71203e+10
-1.73168e+10
-1.75542e+10
-1.77799e+10
-1.77967e+10
-1.79975e+10
-1.78926e+10
-1.75887e+10
-1.72564e+10
-1.69416e+10
-1.66928e+10
-1.65873e+10
-1.65925e+10
-1.65055e+10
-1.63465e+10
-1.6199e+10
-1.60464e+10
-1.58921e+10
-1.57336e+10
-1.55718e+10
-1.54077e+10
-1.52432e+10
-1.50805e+10
-1.49214e+10
-1.47674e+10
-1.46191e+10
-1.44755e+10
-1.43338e+10
-1.41911e+10
-1.40489e+10
-1.39112e+10
-1.37787e+10
-1.36544e+10
-1.35425e+10
-1.34505e+10
-1.33867e+10
-1.33552e+10
-1.3362e+10
-1.34143e+10
-1.35089e+10
-1.36252e+10
-1.37259e+10
-1.37545e+10
-1.36143e+10
-1.31666e+10
-1.23487e+10
-1.15501e+10
-1.20945e+10
-1.53089e+10
-1.83118e+10
-1.06845e+10
-2.05141e+10
-2.02309e+10
-1.87809e+10
-1.76905e+10
-1.77579e+10
-1.74194e+10
-1.74628e+10
-1.76032e+10
-1.77756e+10
-1.7734e+10
-1.74963e+10
-1.72417e+10
-1.697e+10
-1.67437e+10
-1.66375e+10
-1.65957e+10
-1.65008e+10
-1.6358e+10
-1.6215e+10
-1.60657e+10
-1.59116e+10
-1.57511e+10
-1.55855e+10
-1.54166e+10
-1.5247e+10
-1.50796e+10
-1.49169e+10
-1.47605e+10
-1.46101e+10
-1.44626e+10
-1.43125e+10
-1.41501e+10
-1.3978e+10
-1.38383e+10
-1.37338e+10
-1.35937e+10
-1.346e+10
-1.33603e+10
-1.32922e+10
-1.32638e+10
-1.32811e+10
-1.33523e+10
-1.34736e+10
-1.36184e+10
-1.37466e+10
-1.3796e+10
-1.3665e+10
-1.32348e+10
-1.2448e+10
-1.1629e+10
-1.19475e+10
-1.47731e+10
-1.78028e+10
-1.01548e+10
-2.0122e+10
-1.94203e+10
-1.83604e+10
-1.76697e+10
-1.85398e+10
-1.82235e+10
-1.7545e+10
-1.74336e+10
-1.76672e+10
-1.76279e+10
-1.74302e+10
-1.71884e+10
-1.69386e+10
-1.67415e+10
-1.66509e+10
-1.66075e+10
-1.64968e+10
-1.63522e+10
-1.62115e+10
-1.60655e+10
-1.59137e+10
-1.57551e+10
-1.55912e+10
-1.54236e+10
-1.52551e+10
-1.50886e+10
-1.49266e+10
-1.47707e+10
-1.46209e+10
-1.44754e+10
-1.43298e+10
-1.41802e+10
-1.40289e+10
-1.38836e+10
-1.37445e+10
-1.36158e+10
-1.34966e+10
-1.33935e+10
-1.33249e+10
-1.32948e+10
-1.33078e+10
-1.33713e+10
-1.34821e+10
-1.36137e+10
-1.37215e+10
-1.37451e+10
-1.35871e+10
-1.31273e+10
-1.23216e+10
-1.15817e+10
-1.22951e+10
-1.57808e+10
-1.83651e+10
-9.43623e+09
-1.86817e+10
-1.87619e+10
-1.85649e+10
-1.7753e+10
-1.80666e+10
-1.7692e+10
-1.74247e+10
-1.74047e+10
-1.75566e+10
-1.75933e+10
-1.74081e+10
-1.71255e+10
-1.69059e+10
-1.6747e+10
-1.66703e+10
-1.66035e+10
-1.64948e+10
-1.63604e+10
-1.62213e+10
-1.6074e+10
-1.59185e+10
-1.57535e+10
-1.55809e+10
-1.54031e+10
-1.52243e+10
-1.50487e+10
-1.48794e+10
-1.47178e+10
-1.45628e+10
-1.44092e+10
-1.42513e+10
-1.40836e+10
-1.39115e+10
-1.37577e+10
-1.36216e+10
-1.34797e+10
-1.33445e+10
-1.32351e+10
-1.31603e+10
-1.31313e+10
-1.3158e+10
-1.32442e+10
-1.33819e+10
-1.35442e+10
-1.36857e+10
-1.37373e+10
-1.35957e+10
-1.31319e+10
-1.2265e+10
-1.12693e+10
-1.13e+10
-1.40201e+10
-1.76357e+10
-1.17363e+10
-1.88265e+10
-1.84117e+10
-1.80685e+10
-1.79665e+10
-1.86434e+10
-1.80862e+10
-1.74674e+10
-1.73009e+10
-1.73808e+10
-1.7411e+10
-1.73029e+10
-1.70941e+10
-1.68904e+10
-1.6742e+10
-1.66669e+10
-1.65983e+10
-1.64846e+10
-1.63517e+10
-1.62156e+10
-1.60719e+10
-1.59194e+10
-1.57576e+10
-1.55877e+10
-1.54126e+10
-1.52365e+10
-1.50636e+10
-1.4897e+10
-1.47377e+10
-1.45841e+10
-1.44343e+10
-1.42863e+10
-1.41356e+10
-1.3979e+10
-1.38247e+10
-1.36771e+10
-1.3536e+10
-1.34061e+10
-1.32958e+10
-1.32173e+10
-1.31816e+10
-1.31994e+10
-1.32747e+10
-1.33997e+10
-1.35505e+10
-1.36827e+10
-1.37293e+10
-1.35931e+10
-1.31508e+10
-1.23388e+10
-1.15163e+10
-1.20194e+10
-1.52469e+10
-1.79517e+10
-9.26032e+09
-1.8037e+10
-1.80636e+10
-1.80349e+10
-1.7902e+10
-1.80459e+10
-1.77465e+10
-1.74109e+10
-1.72626e+10
-1.72999e+10
-1.73731e+10
-1.73137e+10
-1.70694e+10
-1.68732e+10
-1.67636e+10
-1.66983e+10
-1.662e+10
-1.65137e+10
-1.63906e+10
-1.6259e+10
-1.61172e+10
-1.59636e+10
-1.57975e+10
-1.56196e+10
-1.54341e+10
-1.52476e+10
-1.50669e+10
-1.4895e+10
-1.47304e+10
-1.45721e+10
-1.44184e+10
-1.42657e+10
-1.41127e+10
-1.3962e+10
-1.38144e+10
-1.36641e+10
-1.35173e+10
-1.33849e+10
-1.32758e+10
-1.32009e+10
-1.31732e+10
-1.32034e+10
-1.32947e+10
-1.3438e+10
-1.36081e+10
-1.37608e+10
-1.38271e+10
-1.371e+10
-1.32838e+10
-1.24495e+10
-1.14229e+10
-1.13114e+10
-1.39038e+10
-1.75371e+10
-1.03814e+10
-1.83026e+10
-1.81823e+10
-1.80464e+10
-1.78996e+10
-1.82155e+10
-1.78028e+10
-1.7413e+10
-1.73046e+10
-1.72986e+10
-1.73061e+10
-1.72165e+10
-1.70309e+10
-1.68624e+10
-1.67577e+10
-1.66892e+10
-1.6608e+10
-1.64996e+10
-1.63777e+10
-1.62479e+10
-1.61076e+10
-1.59553e+10
-1.579e+10
-1.56131e+10
-1.54292e+10
-1.52446e+10
-1.50654e+10
-1.48951e+10
-1.47345e+10
-1.45816e+10
-1.44331e+10
-1.42874e+10
-1.41421e+10
-1.39934e+10
-1.38437e+10
-1.36952e+10
-1.355e+10
-1.34166e+10
-1.33039e+10
-1.32222e+10
-1.31846e+10
-1.32031e+10
-1.32812e+10
-1.34111e+10
-1.35698e+10
-1.37155e+10
-1.37828e+10
-1.36788e+10
-1.32812e+10
-1.25081e+10
-1.16398e+10
-1.18707e+10
-1.47198e+10
-1.77256e+10
-9.50358e+09
-1.75772e+10
-1.77439e+10
-1.77937e+10
-1.79102e+10
-1.78225e+10
-1.75892e+10
-1.73288e+10
-1.71705e+10
-1.71732e+10
-1.72361e+10
-1.71465e+10
-1.6965e+10
-1.68386e+10
-1.67668e+10
-1.67027e+10
-1.66237e+10
-1.65251e+10
-1.64119e+10
-1.62875e+10
-1.61508e+10
-1.59983e+10
-1.5827e+10
-1.56368e+10
-1.54357e+10
-1.52342e+10
-1.50418e+10
-1.48624e+10
-1.4697e+10
-1.45434e+10
-1.4397e+10
-1.42549e+10
-1.4118e+10
-1.39869e+10
-1.38557e+10
-1.37187e+10
-1.3583e+10
-1.34586e+10
-1.33551e+10
-1.32841e+10
-1.32575e+10
-1.32848e+10
-1.33698e+10
-1.35053e+10
-1.36695e+10
-1.38218e+10
-1.39022e+10
-1.38298e+10
-1.34992e+10
-1.2831e+10
-1.20637e+10
-1.22775e+10
-1.48958e+10
-1.77531e+10
-9.4448e+09
-1.78207e+10
-1.79425e+10
-1.8103e+10
-1.78704e+10
-1.76603e+10
-1.74141e+10
-1.73144e+10
-1.72702e+10
-1.72548e+10
-1.72143e+10
-1.70967e+10
-1.69515e+10
-1.68406e+10
-1.67687e+10
-1.67029e+10
-1.66211e+10
-1.65213e+10
-1.64083e+10
-1.62842e+10
-1.6147e+10
-1.59937e+10
-1.58211e+10
-1.56307e+10
-1.54294e+10
-1.52275e+10
-1.50338e+10
-1.48542e+10
-1.46904e+10
-1.45401e+10
-1.43986e+10
-1.42615e+10
-1.41266e+10
-1.39946e+10
-1.38621e+10
-1.37269e+10
-1.35937e+10
-1.34706e+10
-1.33671e+10
-1.32947e+10
-1.32654e+10
-1.32889e+10
-1.33687e+10
-1.34981e+10
-1.36559e+10
-1.38031e+10
-1.38809e+10
-1.381e+10
-1.34858e+10
-1.28332e+10
-1.21017e+10
-1.24036e+10
-1.51704e+10
-1.80361e+10
-9.90074e+09
-1.73099e+10
-1.74837e+10
-1.76919e+10
-1.7874e+10
-1.76934e+10
-1.73305e+10
-1.70873e+10
-1.70027e+10
-1.70816e+10
-1.71679e+10
-1.70668e+10
-1.69301e+10
-1.68475e+10
-1.67926e+10
-1.67357e+10
-1.66635e+10
-1.65742e+10
-1.64696e+10
-1.63525e+10
-1.62215e+10
-1.60717e+10
-1.5894e+10
-1.56883e+10
-1.54649e+10
-1.5241e+10
-1.50304e+10
-1.48403e+10
-1.46723e+10
-1.45225e+10
-1.43826e+10
-1.42496e+10
-1.41243e+10
-1.3998e+10
-1.38668e+10
-1.37325e+10
-1.3601e+10
-1.34791e+10
-1.33751e+10
-1.33002e+10
-1.32664e+10
-1.32828e+10
-1.3353e+10
-1.34695e+10
-1.36105e+10
-1.37377e+10
-1.3796e+10
-1.37136e+10
-1.34005e+10
-1.28028e+10
-1.21889e+10
-1.26564e+10
-1.55519e+10
-1.85317e+10
-1.04238e+10
-1.74439e+10
-1.76101e+10
-1.79783e+10
-1.7978e+10
-1.75431e+10
-1.71618e+10
-1.71069e+10
-1.70893e+10
-1.71039e+10
-1.71083e+10
-1.70244e+10
-1.69217e+10
-1.68471e+10
-1.6792e+10
-1.67333e+10
-1.66605e+10
-1.65718e+10
-1.64683e+10
-1.6352e+10
-1.62217e+10
-1.60722e+10
-1.58957e+10
-1.56907e+10
-1.54677e+10
-1.5243e+10
-1.50306e+10
-1.48386e+10
-1.46681e+10
-1.45178e+10
-1.4381e+10
-1.42491e+10
-1.41203e+10
-1.3992e+10
-1.38608e+10
-1.37274e+10
-1.35972e+10
-1.34767e+10
-1.33737e+10
-1.32998e+10
-1.3267e+10
-1.3284e+10
-1.33539e+10
-1.34688e+10
-1.36062e+10
-1.37269e+10
-1.37754e+10
-1.36793e+10
-1.33474e+10
-1.27214e+10
-1.20485e+10
-1.23863e+10
-1.52499e+10
-1.88755e+10
-1.21773e+10
-1.716e+10
-1.71995e+10
-1.74133e+10
-1.75968e+10
-1.75351e+10
-1.71753e+10
-1.69464e+10
-1.69407e+10
-1.70341e+10
-1.70483e+10
-1.69654e+10
-1.68862e+10
-1.68347e+10
-1.67933e+10
-1.6746e+10
-1.66834e+10
-1.66026e+10
-1.65054e+10
-1.63952e+10
-1.62731e+10
-1.61312e+10
-1.59533e+10
-1.57299e+10
-1.54739e+10
-1.52155e+10
-1.49787e+10
-1.47733e+10
-1.45985e+10
-1.44492e+10
-1.43148e+10
-1.41854e+10
-1.40603e+10
-1.39337e+10
-1.3801e+10
-1.36651e+10
-1.35309e+10
-1.34053e+10
-1.32986e+10
-1.32229e+10
-1.31899e+10
-1.32085e+10
-1.3281e+10
-1.33985e+10
-1.35362e+10
-1.36521e+10
-1.36866e+10
-1.35625e+10
-1.31854e+10
-1.24978e+10
-1.17537e+10
-1.20516e+10
-1.50744e+10
-1.94781e+10
-1.39324e+10
-1.71472e+10
-1.71968e+10
-1.75111e+10
-1.77067e+10
-1.74505e+10
-1.71122e+10
-1.7033e+10
-1.70104e+10
-1.69956e+10
-1.69798e+10
-1.69301e+10
-1.68763e+10
-1.68297e+10
-1.67888e+10
-1.67407e+10
-1.66783e+10
-1.65986e+10
-1.65025e+10
-1.63931e+10
-1.62716e+10
-1.61307e+10
-1.59544e+10
-1.57326e+10
-1.54787e+10
-1.52217e+10
-1.49857e+10
-1.47795e+10
-1.46026e+10
-1.44529e+10
-1.43218e+10
-1.41938e+10
-1.40676e+10
-1.39387e+10
-1.38049e+10
-1.36691e+10
-1.35346e+10
-1.34083e+10
-1.33003e+10
-1.32228e+10
-1.31878e+10
-1.32043e+10
-1.32746e+10
-1.33893e+10
-1.35238e+10
-1.36354e+10
-1.36643e+10
-1.35317e+10
-1.31402e+10
-1.24258e+10
-1.16222e+10
-1.1782e+10
-1.46021e+10
-1.88916e+10
-1.37165e+10
-1.69922e+10
-1.69137e+10
-1.69238e+10
-1.70827e+10
-1.7251e+10
-1.71047e+10
-1.69544e+10
-1.6962e+10
-1.69766e+10
-1.69221e+10
-1.68785e+10
-1.68462e+10
-1.68197e+10
-1.67946e+10
-1.67618e+10
-1.67138e+10
-1.66469e+10
-1.65627e+10
-1.64664e+10
-1.63625e+10
-1.62427e+10
-1.60771e+10
-1.58323e+10
-1.55213e+10
-1.52045e+10
-1.49305e+10
-1.47096e+10
-1.45333e+10
-1.43881e+10
-1.42616e+10
-1.41431e+10
-1.40239e+10
-1.38986e+10
-1.37655e+10
-1.3628e+10
-1.34913e+10
-1.33639e+10
-1.32582e+10
-1.31885e+10
-1.31682e+10
-1.32072e+10
-1.33077e+10
-1.34597e+10
-1.36359e+10
-1.37896e+10
-1.38545e+10
-1.37433e+10
-1.33471e+10
-1.25975e+10
-1.17643e+10
-1.19866e+10
-1.49047e+10
-1.85772e+10
-1.13085e+10
-1.68794e+10
-1.68018e+10
-1.6923e+10
-1.71821e+10
-1.72787e+10
-1.71988e+10
-1.7028e+10
-1.69519e+10
-1.69191e+10
-1.68957e+10
-1.68713e+10
-1.68453e+10
-1.68187e+10
-1.67927e+10
-1.67581e+10
-1.67089e+10
-1.66413e+10
-1.65562e+10
-1.64586e+10
-1.63533e+10
-1.6233e+10
-1.6068e+10
-1.58259e+10
-1.55188e+10
-1.52054e+10
-1.4933e+10
-1.47119e+10
-1.45348e+10
-1.43911e+10
-1.42679e+10
-1.41492e+10
-1.40288e+10
-1.39018e+10
-1.37665e+10
-1.36271e+10
-1.3488e+10
-1.33571e+10
-1.32467e+10
-1.31709e+10
-1.31439e+10
-1.31758e+10
-1.32699e+10
-1.34166e+10
-1.35899e+10
-1.37444e+10
-1.38145e+10
-1.37124e+10
-1.3327e+10
-1.25863e+10
-1.17594e+10
-1.19979e+10
-1.49001e+10
-1.82166e+10
-1.04364e+10
-1.67485e+10
-1.66131e+10
-1.64858e+10
-1.66969e+10
-1.6955e+10
-1.69903e+10
-1.69263e+10
-1.6872e+10
-1.68331e+10
-1.68104e+10
-1.67999e+10
-1.67944e+10
-1.67926e+10
-1.6791e+10
-1.67813e+10
-1.67559e+10
-1.671e+10
-1.66433e+10
-1.65621e+10
-1.6476e+10
-1.63833e+10
-1.62389e+10
-1.59604e+10
-1.5543e+10
-1.51102e+10
-1.47767e+10
-1.4543e+10
-1.4378e+10
-1.42527e+10
-1.41478e+10
-1.40483e+10
-1.39417e+10
-1.38217e+10
-1.36883e+10
-1.35456e+10
-1.34002e+10
-1.32621e+10
-1.31454e+10
-1.30665e+10
-1.30411e+10
-1.3081e+10
-1.319e+10
-1.33588e+10
-1.35602e+10
-1.37465e+10
-1.38488e+10
-1.37746e+10
-1.3409e+10
-1.26908e+10
-1.19497e+10
-1.23917e+10
-1.52567e+10
-1.75744e+10
-9.1133e+09
-1.6577e+10
-1.64907e+10
-1.65495e+10
-1.68066e+10
-1.70675e+10
-1.70497e+10
-1.68859e+10
-1.6841e+10
-1.6823e+10
-1.68066e+10
-1.67977e+10
-1.67936e+10
-1.6791e+10
-1.67874e+10
-1.67757e+10
-1.67492e+10
-1.67034e+10
-1.66376e+10
-1.65571e+10
-1.64717e+10
-1.63807e+10
-1.62394e+10
-1.59645e+10
-1.55506e+10
-1.51194e+10
-1.47852e+10
-1.4548e+10
-1.43804e+10
-1.4255e+10
-1.41503e+10
-1.40496e+10
-1.3941e+10
-1.38189e+10
-1.3683e+10
-1.35376e+10
-1.3389e+10
-1.32466e+10
-1.31245e+10
-1.3039e+10
-1.30056e+10
-1.30368e+10
-1.31368e+10
-1.3297e+10
-1.34909e+10
-1.36715e+10
-1.37707e+10
-1.36961e+10
-1.33307e+10
-1.26117e+10
-1.18665e+10
-1.23065e+10
-1.52053e+10
-1.76435e+10
-9.32111e+09
-1.65265e+10
-1.64383e+10
-1.64337e+10
-1.66298e+10
-1.67823e+10
-1.68449e+10
-1.68422e+10
-1.68144e+10
-1.67925e+10
-1.67855e+10
-1.67926e+10
-1.68114e+10
-1.68337e+10
-1.6852e+10
-1.68578e+10
-1.6843e+10
-1.68031e+10
-1.67375e+10
-1.66535e+10
-1.65696e+10
-1.65051e+10
-1.64187e+10
-1.61497e+10
-1.55901e+10
-1.49697e+10
-1.45679e+10
-1.43374e+10
-1.4197e+10
-1.41057e+10
-1.40324e+10
-1.39582e+10
-1.38701e+10
-1.37625e+10
-1.36357e+10
-1.34943e+10
-1.33456e+10
-1.32007e+10
-1.30739e+10
-1.29821e+10
-1.29411e+10
-1.29631e+10
-1.30517e+10
-1.31973e+10
-1.33731e+10
-1.35322e+10
-1.36073e+10
-1.35086e+10
-1.31278e+10
-1.2424e+10
-1.1753e+10
-1.22681e+10
-1.50477e+10
-1.74555e+10
-1.02948e+10
-1.64061e+10
-1.64418e+10
-1.65748e+10
-1.67493e+10
-1.68452e+10
-1.68186e+10
-1.68017e+10
-1.67975e+10
-1.67892e+10
-1.67854e+10
-1.67915e+10
-1.68086e+10
-1.68295e+10
-1.68464e+10
-1.68512e+10
-1.68366e+10
-1.6799e+10
-1.6737e+10
-1.66562e+10
-1.65741e+10
-1.65113e+10
-1.64308e+10
-1.61724e+10
-1.56199e+10
-1.50057e+10
-1.46031e+10
-1.4366e+10
-1.42197e+10
-1.41248e+10
-1.40484e+10
-1.39709e+10
-1.38802e+10
-1.37707e+10
-1.36426e+10
-1.35002e+10
-1.33511e+10
-1.3206e+10
-1.30794e+10
-1.2988e+10
-1.29478e+10
-1.29708e+10
-1.30609e+10
-1.32088e+10
-1.33872e+10
-1.35485e+10
-1.36246e+10
-1.35236e+10
-1.31326e+10
-1.24034e+10
-1.16744e+10
-1.20666e+10
-1.47923e+10
-1.75114e+10
-1.05901e+10
-1.63984e+10
-1.63753e+10
-1.65334e+10
-1.6648e+10
-1.66672e+10
-1.66741e+10
-1.66878e+10
-1.66951e+10
-1.66985e+10
-1.67081e+10
-1.67279e+10
-1.67591e+10
-1.67947e+10
-1.6824e+10
-1.68361e+10
-1.68239e+10
-1.67894e+10
-1.67392e+10
-1.6683e+10
-1.66413e+10
-1.66556e+10
-1.67292e+10
-1.66101e+10
-1.58465e+10
-1.48254e+10
-1.42702e+10
-1.40422e+10
-1.39561e+10
-1.39344e+10
-1.39183e+10
-1.38866e+10
-1.38304e+10
-1.37478e+10
-1.36408e+10
-1.35153e+10
-1.338e+10
-1.32468e+10
-1.31306e+10
-1.30477e+10
-1.30135e+10
-1.30388e+10
-1.31253e+10
-1.32622e+10
-1.34222e+10
-1.35593e+10
-1.36085e+10
-1.34845e+10
-1.30864e+10
-1.23867e+10
-1.17621e+10
-1.24131e+10
-1.54681e+10
-1.77444e+10
-9.21837e+09
-1.63719e+10
-1.64858e+10
-1.6636e+10
-1.67079e+10
-1.66816e+10
-1.66655e+10
-1.66807e+10
-1.66922e+10
-1.67e+10
-1.67102e+10
-1.67286e+10
-1.67566e+10
-1.67886e+10
-1.68134e+10
-1.68207e+10
-1.6804e+10
-1.67666e+10
-1.67162e+10
-1.66597e+10
-1.66152e+10
-1.66242e+10
-1.67002e+10
-1.66099e+10
-1.58726e+10
-1.48554e+10
-1.43045e+10
-1.40719e+10
-1.39802e+10
-1.39543e+10
-1.39344e+10
-1.38987e+10
-1.38393e+10
-1.37542e+10
-1.36451e+10
-1.35179e+10
-1.33818e+10
-1.32489e+10
-1.31338e+10
-1.30533e+10
-1.30227e+10
-1.30529e+10
-1.3146e+10
-1.32911e+10
-1.346e+10
-1.36047e+10
-1.36585e+10
-1.35324e+10
-1.31197e+10
-1.23859e+10
-1.17057e+10
-1.23306e+10
-1.54611e+10
-1.77973e+10
-9.0965e+09
-1.6405e+10
-1.64063e+10
-1.65577e+10
-1.6589e+10
-1.65775e+10
-1.65677e+10
-1.65731e+10
-1.65846e+10
-1.66034e+10
-1.66329e+10
-1.66768e+10
-1.67364e+10
-1.68049e+10
-1.68686e+10
-1.69132e+10
-1.69344e+10
-1.69477e+10
-1.69742e+10
-1.70241e+10
-1.70998e+10
-1.72271e+10
-1.74893e+10
-1.77095e+10
-1.68569e+10
-1.51248e+10
-1.36554e+10
-1.3539e+10
-1.36406e+10
-1.37431e+10
-1.37959e+10
-1.38008e+10
-1.37637e+10
-1.36914e+10
-1.35899e+10
-1.34673e+10
-1.33341e+10
-1.32035e+10
-1.30913e+10
-1.30146e+10
-1.29889e+10
-1.30247e+10
-1.31236e+10
-1.32747e+10
-1.34509e+10
-1.36071e+10
-1.36801e+10
-1.35884e+10
-1.32356e+10
-1.25938e+10
-1.20231e+10
-1.26591e+10
-1.55503e+10
-1.78385e+10
-9.147e+09
-1.6395e+10
-1.6484e+10
-1.65787e+10
-1.6582e+10
-1.65544e+10
-1.65485e+10
-1.65568e+10
-1.65711e+10
-1.65922e+10
-1.6623e+10
-1.66662e+10
-1.6722e+10
-1.67849e+10
-1.68415e+10
-1.68784e+10
-1.68916e+10
-1.68995e+10
-1.69296e+10
-1.6983e+10
-1.70575e+10
-1.71761e+10
-1.74211e+10
-1.77442e+10
-1.69791e+10
-1.52474e+10
-1.3669e+10
-1.35599e+10
-1.36573e+10
-1.37563e+10
-1.38068e+10
-1.38109e+10
-1.37742e+10
-1.37027e+10
-1.36021e+10
-1.3481e+10
-1.33499e+10
-1.32219e+10
-1.31124e+10
-1.30384e+10
-1.30151e+10
-1.30527e+10
-1.3153e+10
-1.33046e+10
-1.34793e+10
-1.36297e+10
-1.36904e+10
-1.35754e+10
-1.31806e+10
-1.24666e+10
-1.17898e+10
-1.23452e+10
-1.53984e+10
-1.85624e+10
-1.22173e+10
-1.64883e+10
-1.65177e+10
-1.6578e+10
-1.65734e+10
-1.65592e+10
-1.65499e+10
-1.65456e+10
-1.65478e+10
-1.656e+10
-1.65868e+10
-1.66322e+10
-1.66975e+10
-1.67763e+10
-1.68508e+10
-1.69011e+10
-1.6926e+10
-1.69491e+10
-1.69993e+10
-1.70811e+10
-1.71883e+10
-1.73505e+10
-1.77022e+10
-1.81002e+10
-1.78251e+10
-1.66223e+10
-1.20674e+10
-1.27744e+10
-1.33014e+10
-1.35761e+10
-1.36994e+10
-1.37334e+10
-1.37051e+10
-1.36306e+10
-1.35214e+10
-1.33881e+10
-1.32427e+10
-1.30999e+10
-1.29764e+10
-1.28901e+10
-1.28569e+10
-1.28878e+10
-1.29849e+10
-1.3137e+10
-1.33161e+10
-1.34759e+10
-1.35524e+10
-1.34622e+10
-1.31049e+10
-1.24328e+10
-1.17437e+10
-1.21057e+10
-1.48187e+10
-1.78622e+10
-1.10731e+10
-1.65151e+10
-1.65619e+10
-1.65974e+10
-1.65845e+10
-1.65677e+10
-1.65595e+10
-1.6554e+10
-1.65544e+10
-1.6564e+10
-1.65875e+10
-1.66292e+10
-1.66908e+10
-1.67649e+10
-1.68349e+10
-1.68831e+10
-1.6905e+10
-1.69247e+10
-1.69768e+10
-1.70578e+10
-1.71633e+10
-1.73216e+10
-1.7642e+10
-1.80456e+10
-1.81601e+10
-1.72292e+10
-1.19851e+10
-1.27739e+10
-1.33136e+10
-1.35895e+10
-1.37144e+10
-1.37524e+10
-1.37294e+10
-1.36613e+10
-1.35592e+10
-1.34337e+10
-1.32963e+10
-1.3161e+10
-1.30442e+10
-1.29631e+10
-1.29332e+10
-1.29651e+10
-1.3061e+10
-1.321e+10
-1.33842e+10
-1.35371e+10
-1.36041e+10
-1.35015e+10
-1.31269e+10
-1.24408e+10
-1.18206e+10
-1.25769e+10
-1.60084e+10
-1.8397e+10
-9.35773e+09
-1.65595e+10
-1.65854e+10
-1.6593e+10
-1.65869e+10
-1.65763e+10
-1.6564e+10
-1.65524e+10
-1.65476e+10
-1.65533e+10
-1.6574e+10
-1.6614e+10
-1.66754e+10
-1.67523e+10
-1.68265e+10
-1.68757e+10
-1.68948e+10
-1.6914e+10
-1.69725e+10
-1.70638e+10
-1.71736e+10
-1.73593e+10
-1.77083e+10
-1.81957e+10
-1.7453e+10
-1.0546e+10
-1.27016e+10
-1.32536e+10
-1.35494e+10
-1.36873e+10
-1.37293e+10
-1.37042e+10
-1.36302e+10
-1.35199e+10
-1.33849e+10
-1.3238e+10
-1.30942e+10
-1.29708e+10
-1.28856e+10
-1.28549e+10
-1.28901e+10
-1.2993e+10
-1.31511e+10
-1.33345e+10
-1.3496e+10
-1.35701e+10
-1.347e+10
-1.30903e+10
-1.23652e+10
-1.15337e+10
-1.16076e+10
-1.40726e+10
-1.74656e+10
-1.11121e+10
-1.66034e+10
-1.65993e+10
-1.66049e+10
-1.65947e+10
-1.65849e+10
-1.65744e+10
-1.65634e+10
-1.65574e+10
-1.65608e+10
-1.65793e+10
-1.66173e+10
-1.66765e+10
-1.67505e+10
-1.68232e+10
-1.68753e+10
-1.69022e+10
-1.69249e+10
-1.69718e+10
-1.70482e+10
-1.71414e+10
-1.72989e+10
-1.76825e+10
-1.82228e+10
-1.80698e+10
-1.04034e+10
-1.27248e+10
-1.3277e+10
-1.35714e+10
-1.37119e+10
-1.37601e+10
-1.37429e+10
-1.36777e+10
-1.35761e+10
-1.34492e+10
-1.3309e+10
-1.31699e+10
-1.30483e+10
-1.2961e+10
-1.2924e+10
-1.29482e+10
-1.30357e+10
-1.3175e+10
-1.33377e+10
-1.34789e+10
-1.35361e+10
-1.34272e+10
-1.3052e+10
-1.23627e+10
-1.16926e+10
-1.22572e+10
-1.53911e+10
-1.80943e+10
-9.53513e+09
-1.65796e+10
-1.65727e+10
-1.65759e+10
-1.65731e+10
-1.65658e+10
-1.65538e+10
-1.65405e+10
-1.65311e+10
-1.65314e+10
-1.65461e+10
-1.65794e+10
-1.66329e+10
-1.6702e+10
-1.67734e+10
-1.68281e+10
-1.68563e+10
-1.68764e+10
-1.69155e+10
-1.69765e+10
-1.7052e+10
-1.71836e+10
-1.74897e+10
-1.78247e+10
-1.76417e+10
-1.46583e+10
-1.33476e+10
-1.335e+10
-1.35355e+10
-1.36911e+10
-1.37739e+10
-1.37911e+10
-1.37545e+10
-1.36752e+10
-1.3563e+10
-1.34281e+10
-1.32825e+10
-1.31406e+10
-1.30192e+10
-1.29359e+10
-1.29074e+10
-1.29454e+10
-1.30519e+10
-1.32137e+10
-1.34022e+10
-1.35736e+10
-1.36678e+10
-1.3604e+10
-1.32839e+10
-1.26508e+10
-1.19715e+10
-1.23308e+10
-1.51052e+10
-1.77542e+10
-9.38153e+09
-1.66061e+10
-1.65822e+10
-1.65812e+10
-1.65752e+10
-1.65665e+10
-1.65538e+10
-1.654e+10
-1.65292e+10
-1.65263e+10
-1.65369e+10
-1.65655e+10
-1.66139e+10
-1.66781e+10
-1.67462e+10
-1.68029e+10
-1.68411e+10
-1.68701e+10
-1.69063e+10
-1.69521e+10
-1.70035e+10
-1.71257e+10
-1.74308e+10
-1.76555e+10
-1.73945e+10
-1.49166e+10
-1.34075e+10
-1.33856e+10
-1.35557e+10
-1.37063e+10
-1.37913e+10
-1.38151e+10
-1.37865e+10
-1.37156e+10
-1.36116e+10
-1.34841e+10
-1.33445e+10
-1.32064e+10
-1.30856e+10
-1.29989e+10
-1.29623e+10
-1.2987e+10
-1.30742e+10
-1.32115e+10
-1.3371e+10
-1.35109e+10
-1.35738e+10
-1.34851e+10
-1.31539e+10
-1.25383e+10
-1.1952e+10
-1.25534e+10
-1.56124e+10
-1.83364e+10
-1.04659e+10
-1.65841e+10
-1.65637e+10
-1.65615e+10
-1.65549e+10
-1.65442e+10
-1.65293e+10
-1.65122e+10
-1.64957e+10
-1.64846e+10
-1.64836e+10
-1.64958e+10
-1.65217e+10
-1.65578e+10
-1.65956e+10
-1.66248e+10
-1.66383e+10
-1.66366e+10
-1.66223e+10
-1.65956e+10
-1.65688e+10
-1.65892e+10
-1.66802e+10
-1.65846e+10
-1.57853e+10
-1.4761e+10
-1.4187e+10
-1.39836e+10
-1.39268e+10
-1.3929e+10
-1.39264e+10
-1.38981e+10
-1.38371e+10
-1.37446e+10
-1.3625e+10
-1.34857e+10
-1.33367e+10
-1.31911e+10
-1.30645e+10
-1.29744e+10
-1.29374e+10
-1.29654e+10
-1.30601e+10
-1.3209e+10
-1.33855e+10
-1.35502e+10
-1.36508e+10
-1.36168e+10
-1.3363e+10
-1.28515e+10
-1.23711e+10
-1.2962e+10
-1.57681e+10
-1.82626e+10
-9.5633e+09
-1.65922e+10
-1.65733e+10
-1.65683e+10
-1.65599e+10
-1.65474e+10
-1.65306e+10
-1.65118e+10
-1.64937e+10
-1.64801e+10
-1.64756e+10
-1.64836e+10
-1.65053e+10
-1.65381e+10
-1.65744e+10
-1.66042e+10
-1.66202e+10
-1.66215e+10
-1.66097e+10
-1.65847e+10
-1.656e+10
-1.65881e+10
-1.6684e+10
-1.65738e+10
-1.58038e+10
-1.47577e+10
-1.41797e+10
-1.39707e+10
-1.39129e+10
-1.39177e+10
-1.39197e+10
-1.38974e+10
-1.38422e+10
-1.37551e+10
-1.36408e+10
-1.35064e+10
-1.33618e+10
-1.322e+10
-1.30963e+10
-1.30078e+10
-1.29709e+10
-1.29966e+10
-1.30859e+10
-1.32258e+10
-1.33892e+10
-1.35363e+10
-1.36145e+10
-1.35549e+10
-1.32735e+10
-1.27295e+10
-1.22033e+10
-1.2764e+10
-1.57897e+10
-1.90815e+10
-1.1613e+10
-1.65823e+10
-1.65665e+10
-1.65628e+10
-1.65555e+10
-1.6546e+10
-1.65326e+10
-1.65166e+10
-1.65003e+10
-1.64869e+10
-1.64801e+10
-1.64822e+10
-1.64933e+10
-1.65105e+10
-1.65292e+10
-1.65434e+10
-1.65474e+10
-1.65361e+10
-1.65039e+10
-1.6449e+10
-1.63835e+10
-1.63285e+10
-1.62514e+10
-1.5998e+10
-1.54632e+10
-1.48848e+10
-1.45092e+10
-1.43004e+10
-1.41837e+10
-1.41173e+10
-1.40643e+10
-1.40034e+10
-1.39234e+10
-1.38204e+10
-1.36956e+10
-1.35538e+10
-1.34034e+10
-1.3256e+10
-1.31267e+10
-1.30326e+10
-1.29901e+10
-1.30108e+10
-1.30959e+10
-1.32322e+10
-1.33924e+10
-1.35378e+10
-1.36189e+10
-1.35709e+10
-1.33147e+10
-1.28172e+10
-1.23608e+10
-1.29705e+10
-1.57929e+10
-1.83278e+10
-9.93261e+09
-1.65889e+10
-1.65735e+10
-1.65697e+10
-1.65622e+10
-1.65519e+10
-1.65375e+10
-1.65206e+10
-1.65034e+10
-1.64888e+10
-1.64804e+10
-1.64808e+10
-1.64904e+10
-1.65072e+10
-1.65269e+10
-1.65429e+10
-1.65489e+10
-1.65398e+10
-1.65113e+10
-1.64627e+10
-1.64063e+10
-1.63616e+10
-1.62899e+10
-1.60341e+10
-1.54867e+10
-1.48853e+10
-1.4497e+10
-1.42854e+10
-1.417e+10
-1.41039e+10
-1.40507e+10
-1.39892e+10
-1.39077e+10
-1.38029e+10
-1.36763e+10
-1.35334e+10
-1.33827e+10
-1.32363e+10
-1.31098e+10
-1.30205e+10
-1.2985e+10
-1.30143e+10
-1.3109e+10
-1.32549e+10
-1.3423e+10
-1.35716e+10
-1.36475e+10
-1.35812e+10
-1.32856e+10
-1.27078e+10
-1.20755e+10
-1.23814e+10
-1.52435e+10
-1.92884e+10
-1.32957e+10
-1.65597e+10
-1.65434e+10
-1.65379e+10
-1.65287e+10
-1.65169e+10
-1.6501e+10
-1.64821e+10
-1.64619e+10
-1.64429e+10
-1.64285e+10
-1.64208e+10
-1.64192e+10
-1.64214e+10
-1.64248e+10
-1.64262e+10
-1.64202e+10
-1.6401e+10
-1.63632e+10
-1.63053e+10
-1.62333e+10
-1.61473e+10
-1.601e+10
-1.57503e+10
-1.53675e+10
-1.49791e+10
-1.46823e+10
-1.44799e+10
-1.43441e+10
-1.4247e+10
-1.41651e+10
-1.40808e+10
-1.39832e+10
-1.38679e+10
-1.37343e+10
-1.3586e+10
-1.34302e+10
-1.32781e+10
-1.31447e+10
-1.30478e+10
-1.30042e+10
-1.30257e+10
-1.31132e+10
-1.32523e+10
-1.34134e+10
-1.35557e+10
-1.36289e+10
-1.35673e+10
-1.32878e+10
-1.27485e+10
-1.22168e+10
-1.27109e+10
-1.55026e+10
-1.84232e+10
-1.06476e+10
-1.65638e+10
-1.65492e+10
-1.65446e+10
-1.65362e+10
-1.65248e+10
-1.65091e+10
-1.64906e+10
-1.64711e+10
-1.64531e+10
-1.64392e+10
-1.6432e+10
-1.64312e+10
-1.64351e+10
-1.64409e+10
-1.64444e+10
-1.64401e+10
-1.64225e+10
-1.63874e+10
-1.63343e+10
-1.62687e+10
-1.61892e+10
-1.60554e+10
-1.5793e+10
-1.54011e+10
-1.49979e+10
-1.46903e+10
-1.44814e+10
-1.43408e+10
-1.4238e+10
-1.41497e+10
-1.40585e+10
-1.39538e+10
-1.38313e+10
-1.3691e+10
-1.3537e+10
-1.33772e+10
-1.32238e+10
-1.30926e+10
-1.3002e+10
-1.29693e+10
-1.30059e+10
-1.31124e+10
-1.32734e+10
-1.34575e+10
-1.36195e+10
-1.37024e+10
-1.36314e+10
-1.33087e+10
-1.26616e+10
-1.18891e+10
-1.19462e+10
-1.4634e+10
-1.91637e+10
-1.3831e+10
-1.65437e+10
-1.65292e+10
-1.65229e+10
-1.65127e+10
-1.64998e+10
-1.64825e+10
-1.64616e+10
-1.64384e+10
-1.64152e+10
-1.63948e+10
-1.6379e+10
-1.63675e+10
-1.6358e+10
-1.63485e+10
-1.6337e+10
-1.63199e+10
-1.62917e+10
-1.62475e+10
-1.6186e+10
-1.61075e+10
-1.60037e+10
-1.58478e+10
-1.5613e+10
-1.53175e+10
-1.50226e+10
-1.47762e+10
-1.45875e+10
-1.44458e+10
-1.43335e+10
-1.42337e+10
-1.41318e+10
-1.40182e+10
-1.38882e+10
-1.37412e+10
-1.35803e+10
-1.34127e+10
-1.32497e+10
-1.31068e+10
-1.30023e+10
-1.29539e+10
-1.29738e+10
-1.30624e+10
-1.32041e+10
-1.33683e+10
-1.35128e+10
-1.35858e+10
-1.35193e+10
-1.32238e+10
-1.26519e+10
-1.20954e+10
-1.2623e+10
-1.54157e+10
-1.78574e+10
-9.37948e+09
-1.65472e+10
-1.65319e+10
-1.65274e+10
-1.65184e+10
-1.65065e+10
-1.64899e+10
-1.64698e+10
-1.64479e+10
-1.64261e+10
-1.6407e+10
-1.63926e+10
-1.6383e+10
-1.63763e+10
-1.637e+10
-1.63614e+10
-1.63462e+10
-1.63197e+10
-1.62776e+10
-1.62192e+10
-1.61445e+10
-1.60438e+10
-1.58876e+10
-1.56477e+10
-1.53421e+10
-1.50371e+10
-1.47831e+10
-1.45905e+10
-1.44461e+10
-1.43303e+10
-1.4226e+10
-1.41192e+10
-1.4e+10
-1.38644e+10
-1.3712e+10
-1.35464e+10
-1.33753e+10
-1.32108e+10
-1.3069e+10
-1.29688e+10
-1.29279e+10
-1.29586e+10
-1.30612e+10
-1.32192e+10
-1.33996e+10
-1.35562e+10
-1.36314e+10
-1.35477e+10
-1.32031e+10
-1.25307e+10
-1.18155e+10
-1.22481e+10
-1.53593e+10