/*--------------------------------*- C++ -*----------------------------------*\
| =========                 |                                                 |
| \\      /  F ield         | OpenFOAM: The Open Source CFD Toolbox           |
|  \\    /   O peration     | Version:  4.1                                   |
|   \\  /    A nd           | Web:      www.OpenFOAM.org                      |
|    \\/     M anipulation  |                                                 |
\*---------------------------------------------------------------------------*/
FoamFile
{
    version     2.0;
    format      ascii;
    class       volScalarField;
    location    "70";
    object      p;
}
// * * * * * * * * * * * * * * * * * * * * * * * * * * * * * * * * * * * * * //

dimensions      [0 2 -2 0 0 0 0];

internalField   nonuniform List<scalar> 
4432
(
-3.83295e+10
-3.86718e+10
-3.9178e+10
-3.90825e+10
-3.91371e+10
-3.93252e+10
-3.94383e+10
-3.95345e+10
-3.96212e+10
-3.97073e+10
-3.97926e+10
-3.98723e+10
-3.99387e+10
-3.99871e+10
-4.0019e+10
-4.0035e+10
-4.00304e+10
-4.00032e+10
-3.99528e+10
-3.98797e+10
-3.97845e+10
-3.96703e+10
-3.95404e+10
-3.93996e+10
-3.92522e+10
-3.91035e+10
-3.89583e+10
-3.88225e+10
-3.87012e+10
-3.85995e+10
-3.85209e+10
-3.84668e+10
-3.84355e+10
-3.84204e+10
-3.84103e+10
-3.83911e+10
-3.83491e+10
-3.82763e+10
-3.81737e+10
-3.80541e+10
-3.79382e+10
-3.78487e+10
-3.78021e+10
-3.78105e+10
-3.79027e+10
-3.81144e+10
-3.83369e+10
-3.80505e+10
-3.65223e+10
-3.44807e+10
-3.64452e+10
-4.73616e+10
-5.76238e+10
-2.94037e+10
-3.85863e+10
-3.86808e+10
-3.8983e+10
-3.91512e+10
-3.91708e+10
-3.93173e+10
-3.94434e+10
-3.95359e+10
-3.962e+10
-3.97092e+10
-3.9799e+10
-3.9881e+10
-3.99479e+10
-3.99968e+10
-4.00293e+10
-4.00453e+10
-4.00403e+10
-4.00123e+10
-3.99618e+10
-3.98884e+10
-3.9793e+10
-3.96781e+10
-3.95472e+10
-3.94049e+10
-3.92554e+10
-3.91039e+10
-3.89553e+10
-3.88153e+10
-3.8689e+10
-3.85814e+10
-3.84961e+10
-3.84347e+10
-3.83954e+10
-3.8372e+10
-3.83543e+10
-3.83287e+10
-3.82819e+10
-3.82059e+10
-3.81015e+10
-3.79814e+10
-3.78669e+10
-3.77808e+10
-3.77393e+10
-3.77538e+10
-3.78522e+10
-3.80666e+10
-3.82737e+10
-3.78989e+10
-3.60597e+10
-3.32479e+10
-3.41328e+10
-4.5815e+10
-6.06517e+10
-3.64833e+10
-3.88163e+10
-3.88245e+10
-3.89918e+10
-3.92355e+10
-3.92724e+10
-3.93618e+10
-3.95006e+10
-3.95989e+10
-3.96864e+10
-3.97789e+10
-3.98707e+10
-3.99609e+10
-4.00396e+10
-4.0097e+10
-4.01331e+10
-4.01517e+10
-4.01507e+10
-4.01248e+10
-4.00732e+10
-3.99948e+10
-3.98906e+10
-3.97634e+10
-3.96171e+10
-3.94575e+10
-3.92901e+10
-3.91214e+10
-3.89569e+10
-3.88028e+10
-3.86641e+10
-3.85461e+10
-3.84519e+10
-3.83832e+10
-3.8339e+10
-3.8313e+10
-3.8295e+10
-3.82719e+10
-3.82311e+10
-3.81649e+10
-3.80732e+10
-3.79665e+10
-3.78639e+10
-3.77853e+10
-3.77418e+10
-3.77401e+10
-3.78071e+10
-3.79737e+10
-3.80831e+10
-3.74649e+10
-3.52024e+10
-3.22019e+10
-3.38664e+10
-4.63155e+10
-5.90357e+10
-3.34111e+10
-3.88132e+10
-3.88847e+10
-3.90694e+10
-3.92157e+10
-3.92744e+10
-3.93716e+10
-3.95091e+10
-3.96018e+10
-3.96898e+10
-3.9782e+10
-3.98761e+10
-3.99675e+10
-4.00452e+10
-4.01008e+10
-4.01362e+10
-4.01557e+10
-4.01541e+10
-4.01269e+10
-4.00748e+10
-3.99963e+10
-3.98921e+10
-3.97647e+10
-3.9618e+10
-3.94577e+10
-3.92894e+10
-3.91197e+10
-3.89538e+10
-3.8798e+10
-3.86574e+10
-3.85371e+10
-3.84405e+10
-3.83691e+10
-3.83213e+10
-3.82913e+10
-3.82694e+10
-3.82428e+10
-3.81989e+10
-3.81298e+10
-3.80358e+10
-3.79277e+10
-3.78242e+10
-3.77444e+10
-3.76991e+10
-3.7695e+10
-3.77591e+10
-3.79201e+10
-3.80112e+10
-3.73178e+10
-3.48406e+10
-3.16553e+10
-3.42983e+10
-4.96369e+10
-6.12807e+10
-2.95278e+10
-3.91367e+10
-3.91276e+10
-3.90529e+10
-3.92633e+10
-3.9345e+10
-3.94113e+10
-3.95082e+10
-3.96032e+10
-3.96957e+10
-3.97889e+10
-3.98819e+10
-3.99759e+10
-4.00591e+10
-4.01205e+10
-4.0161e+10
-4.01835e+10
-4.0186e+10
-4.01641e+10
-4.01166e+10
-4.00405e+10
-3.99348e+10
-3.98011e+10
-3.9644e+10
-3.94698e+10
-3.92859e+10
-3.90998e+10
-3.89181e+10
-3.87473e+10
-3.8593e+10
-3.84608e+10
-3.8354e+10
-3.82729e+10
-3.82146e+10
-3.81738e+10
-3.81416e+10
-3.81062e+10
-3.80567e+10
-3.79867e+10
-3.78981e+10
-3.78025e+10
-3.77176e+10
-3.76591e+10
-3.76346e+10
-3.76542e+10
-3.776e+10
-3.80081e+10
-3.82454e+10
-3.77228e+10
-3.53833e+10
-3.21839e+10
-3.39531e+10
-4.66753e+10
-5.84267e+10
-2.97889e+10
-3.90393e+10
-3.91306e+10
-3.91798e+10
-3.92135e+10
-3.93072e+10
-3.94054e+10
-3.95041e+10
-3.95918e+10
-3.96862e+10
-3.978e+10
-3.98744e+10
-3.99689e+10
-4.00531e+10
-4.01165e+10
-4.01598e+10
-4.01873e+10
-4.01936e+10
-4.01747e+10
-4.01292e+10
-4.00547e+10
-3.99502e+10
-3.98174e+10
-3.96609e+10
-3.94871e+10
-3.93036e+10
-3.91182e+10
-3.89375e+10
-3.87678e+10
-3.86148e+10
-3.84834e+10
-3.83768e+10
-3.82956e+10
-3.82372e+10
-3.81956e+10
-3.81613e+10
-3.81225e+10
-3.80683e+10
-3.79923e+10
-3.7897e+10
-3.77944e+10
-3.77029e+10
-3.7639e+10
-3.76113e+10
-3.76289e+10
-3.77298e+10
-3.79588e+10
-3.81331e+10
-3.74259e+10
-3.46506e+10
-3.07568e+10
-3.21542e+10
-4.603e+10
-6.11631e+10
-3.57809e+10
-3.91195e+10
-3.9195e+10
-3.9214e+10
-3.9254e+10
-3.93636e+10
-3.9465e+10
-3.95592e+10
-3.96515e+10
-3.97503e+10
-3.98535e+10
-3.99593e+10
-4.00671e+10
-4.01655e+10
-4.0245e+10
-4.03039e+10
-4.03415e+10
-4.03523e+10
-4.03332e+10
-4.0282e+10
-4.01962e+10
-4.0074e+10
-3.9917e+10
-3.97314e+10
-3.95263e+10
-3.93128e+10
-3.91011e+10
-3.88999e+10
-3.87163e+10
-3.85566e+10
-3.84261e+10
-3.8327e+10
-3.82572e+10
-3.82107e+10
-3.81822e+10
-3.81631e+10
-3.8139e+10
-3.80986e+10
-3.80351e+10
-3.79486e+10
-3.78481e+10
-3.77475e+10
-3.76583e+10
-3.75843e+10
-3.7534e+10
-3.75553e+10
-3.77174e+10
-3.78885e+10
-3.7338e+10
-3.49585e+10
-3.14744e+10
-3.25593e+10
-4.54241e+10
-6.04743e+10
-3.54637e+10
-3.91684e+10
-3.9225e+10
-3.92265e+10
-3.92257e+10
-3.93385e+10
-3.94636e+10
-3.95566e+10
-3.96458e+10
-3.97469e+10
-3.98507e+10
-3.9958e+10
-4.00663e+10
-4.01658e+10
-4.02479e+10
-4.0311e+10
-4.03532e+10
-4.03682e+10
-4.03526e+10
-4.03041e+10
-4.02201e+10
-4.00995e+10
-3.99438e+10
-3.97593e+10
-3.95555e+10
-3.93435e+10
-3.91341e+10
-3.8936e+10
-3.87564e+10
-3.86006e+10
-3.8473e+10
-3.83755e+10
-3.83067e+10
-3.82618e+10
-3.82326e+10
-3.82082e+10
-3.81767e+10
-3.81269e+10
-3.80514e+10
-3.79522e+10
-3.78402e+10
-3.77321e+10
-3.76431e+10
-3.75818e+10
-3.75613e+10
-3.7631e+10
-3.78573e+10
-3.80844e+10
-3.75095e+10
-3.49621e+10
-3.15064e+10
-3.39725e+10
-4.94383e+10
-6.18518e+10
-3.0373e+10
-3.91807e+10
-3.92151e+10
-3.9257e+10
-3.92659e+10
-3.93454e+10
-3.94439e+10
-3.95422e+10
-3.96391e+10
-3.97446e+10
-3.98606e+10
-3.99817e+10
-4.01008e+10
-4.02114e+10
-4.03065e+10
-4.03835e+10
-4.04377e+10
-4.04629e+10
-4.04554e+10
-4.04107e+10
-4.03251e+10
-4.01944e+10
-4.00194e+10
-3.98066e+10
-3.95688e+10
-3.93214e+10
-3.90787e+10
-3.88524e+10
-3.86512e+10
-3.84813e+10
-3.83468e+10
-3.82485e+10
-3.81829e+10
-3.81433e+10
-3.81219e+10
-3.81086e+10
-3.80898e+10
-3.80538e+10
-3.79938e+10
-3.79102e+10
-3.78124e+10
-3.77147e+10
-3.76296e+10
-3.75631e+10
-3.75283e+10
-3.75771e+10
-3.7784e+10
-3.80334e+10
-3.76245e+10
-3.54147e+10
-3.18306e+10
-3.20015e+10
-4.36045e+10
-5.98936e+10
-3.82979e+10
-3.92373e+10
-3.92645e+10
-3.92461e+10
-3.92451e+10
-3.93339e+10
-3.94432e+10
-3.95444e+10
-3.96443e+10
-3.97496e+10
-3.98634e+10
-3.99835e+10
-4.01025e+10
-4.0212e+10
-4.03062e+10
-4.03825e+10
-4.04359e+10
-4.04614e+10
-4.04556e+10
-4.04143e+10
-4.03329e+10
-4.02076e+10
-4.00386e+10
-3.98321e+10
-3.96004e+10
-3.93585e+10
-3.91207e+10
-3.88987e+10
-3.8701e+10
-3.85334e+10
-3.83994e+10
-3.82999e+10
-3.82323e+10
-3.81902e+10
-3.81648e+10
-3.81445e+10
-3.81167e+10
-3.80701e+10
-3.79982e+10
-3.79024e+10
-3.77936e+10
-3.76886e+10
-3.76021e+10
-3.75428e+10
-3.75264e+10
-3.76077e+10
-3.78625e+10
-3.81649e+10
-3.77722e+10
-3.55442e+10
-3.23142e+10
-3.41945e+10
-4.80374e+10
-6.12132e+10
-3.05526e+10
-3.92608e+10
-3.92742e+10
-3.92936e+10
-3.93209e+10
-3.93885e+10
-3.94814e+10
-3.95831e+10
-3.9687e+10
-3.97999e+10
-3.99307e+10
-4.00747e+10
-4.02165e+10
-4.03503e+10
-4.0472e+10
-4.05761e+10
-4.0654e+10
-4.06981e+10
-4.07023e+10
-4.06632e+10
-4.05752e+10
-4.04325e+10
-4.02324e+10
-3.99821e+10
-3.97002e+10
-3.94096e+10
-3.91314e+10
-3.88815e+10
-3.86698e+10
-3.85011e+10
-3.83765e+10
-3.82934e+10
-3.82464e+10
-3.82279e+10
-3.82274e+10
-3.82319e+10
-3.82282e+10
-3.82044e+10
-3.81536e+10
-3.80771e+10
-3.79857e+10
-3.7897e+10
-3.78285e+10
-3.77931e+10
-3.7812e+10
-3.79441e+10
-3.8274e+10
-3.87104e+10
-3.85921e+10
-3.6813e+10
-3.39041e+10
-3.53197e+10
-4.77751e+10
-6.03218e+10
-3.01325e+10
-3.92686e+10
-3.9284e+10
-3.92919e+10
-3.93127e+10
-3.93851e+10
-3.94734e+10
-3.95709e+10
-3.96778e+10
-3.97929e+10
-3.99214e+10
-4.00602e+10
-4.01997e+10
-4.03326e+10
-4.04542e+10
-4.0559e+10
-4.06386e+10
-4.06843e+10
-4.06904e+10
-4.06523e+10
-4.05657e+10
-4.04249e+10
-4.0227e+10
-3.99794e+10
-3.96998e+10
-3.94112e+10
-3.91343e+10
-3.8885e+10
-3.86731e+10
-3.85036e+10
-3.83773e+10
-3.82926e+10
-3.82444e+10
-3.8225e+10
-3.82241e+10
-3.82295e+10
-3.82283e+10
-3.82093e+10
-3.81664e+10
-3.81013e+10
-3.80254e+10
-3.79562e+10
-3.79106e+10
-3.79001e+10
-3.79427e+10
-3.80932e+10
-3.84283e+10
-3.88386e+10
-3.86251e+10
-3.66377e+10
-3.3399e+10
-3.45375e+10
-4.7529e+10
-6.21201e+10
-3.55688e+10
-3.92382e+10
-3.92496e+10
-3.92597e+10
-3.93013e+10
-3.93706e+10
-3.94652e+10
-3.95706e+10
-3.96805e+10
-3.98027e+10
-3.99456e+10
-4.01014e+10
-4.02591e+10
-4.04129e+10
-4.05572e+10
-4.0684e+10
-4.07834e+10
-4.08455e+10
-4.08628e+10
-4.08317e+10
-4.07464e+10
-4.0597e+10
-4.03728e+10
-4.0078e+10
-3.97373e+10
-3.93849e+10
-3.90519e+10
-3.87594e+10
-3.85188e+10
-3.83334e+10
-3.8201e+10
-3.81163e+10
-3.80718e+10
-3.80588e+10
-3.80661e+10
-3.80801e+10
-3.80874e+10
-3.80763e+10
-3.80402e+10
-3.79802e+10
-3.79061e+10
-3.78351e+10
-3.77846e+10
-3.77685e+10
-3.7808e+10
-3.79601e+10
-3.83056e+10
-3.87508e+10
-3.86226e+10
-3.6746e+10
-3.35144e+10
-3.45335e+10
-4.78042e+10
-6.38736e+10
-3.75538e+10
-3.92223e+10
-3.92294e+10
-3.92595e+10
-3.9307e+10
-3.93751e+10
-3.94595e+10
-3.95605e+10
-3.96745e+10
-3.98027e+10
-3.99469e+10
-4.01027e+10
-4.02624e+10
-4.04191e+10
-4.05662e+10
-4.06955e+10
-4.07964e+10
-4.08585e+10
-4.08752e+10
-4.08432e+10
-4.07572e+10
-4.06057e+10
-4.03781e+10
-4.0079e+10
-3.97337e+10
-3.93777e+10
-3.90424e+10
-3.8749e+10
-3.85088e+10
-3.83247e+10
-3.81945e+10
-3.81125e+10
-3.8071e+10
-3.80606e+10
-3.80699e+10
-3.80863e+10
-3.80966e+10
-3.80896e+10
-3.80588e+10
-3.8006e+10
-3.79416e+10
-3.78825e+10
-3.78458e+10
-3.78444e+10
-3.78973e+10
-3.8058e+10
-3.84001e+10
-3.88164e+10
-3.8611e+10
-3.6545e+10
-3.27462e+10
-3.23809e+10
-4.49564e+10
-6.60994e+10
-4.74393e+10
-3.92643e+10
-3.9262e+10
-3.92715e+10
-3.93192e+10
-3.93942e+10
-3.9485e+10
-3.95852e+10
-3.96964e+10
-3.983e+10
-3.99891e+10
-4.01621e+10
-4.03424e+10
-4.0525e+10
-4.07028e+10
-4.08658e+10
-4.10017e+10
-4.10965e+10
-4.11406e+10
-4.1129e+10
-4.10581e+10
-4.09103e+10
-4.06598e+10
-4.03008e+10
-3.98698e+10
-3.94268e+10
-3.90205e+10
-3.86782e+10
-3.841e+10
-3.82142e+10
-3.80831e+10
-3.80069e+10
-3.79752e+10
-3.79772e+10
-3.80009e+10
-3.80333e+10
-3.80613e+10
-3.80739e+10
-3.80646e+10
-3.80346e+10
-3.79935e+10
-3.79568e+10
-3.79404e+10
-3.79562e+10
-3.80229e+10
-3.81928e+10
-3.85398e+10
-3.89621e+10
-3.87691e+10
-3.66997e+10
-3.2901e+10
-3.26987e+10
-4.50434e+10
-6.34813e+10
-4.21868e+10
-3.9248e+10
-3.92333e+10
-3.92594e+10
-3.93183e+10
-3.93862e+10
-3.94636e+10
-3.95608e+10
-3.96745e+10
-3.98086e+10
-3.9964e+10
-4.01347e+10
-4.03146e+10
-4.04976e+10
-4.06765e+10
-4.08413e+10
-4.09791e+10
-4.10763e+10
-4.11229e+10
-4.11155e+10
-4.10494e+10
-4.09067e+10
-4.06608e+10
-4.03056e+10
-3.9877e+10
-3.94347e+10
-3.90279e+10
-3.86844e+10
-3.84146e+10
-3.82173e+10
-3.80853e+10
-3.80087e+10
-3.79768e+10
-3.79782e+10
-3.80009e+10
-3.8032e+10
-3.80583e+10
-3.80679e+10
-3.80532e+10
-3.80149e+10
-3.79622e+10
-3.79109e+10
-3.78777e+10
-3.78767e+10
-3.79306e+10
-3.80999e+10
-3.8471e+10
-3.89606e+10
-3.88982e+10
-3.70247e+10
-3.34191e+10
-3.3308e+10
-4.5667e+10
-6.37287e+10
-3.9666e+10
-3.91677e+10
-3.91618e+10
-3.91729e+10
-3.92179e+10
-3.92955e+10
-3.93849e+10
-3.94858e+10
-3.9609e+10
-3.97636e+10
-3.99473e+10
-4.01536e+10
-4.03775e+10
-4.06126e+10
-4.08493e+10
-4.1075e+10
-4.12722e+10
-4.14205e+10
-4.15028e+10
-4.15131e+10
-4.1452e+10
-4.12965e+10
-4.09914e+10
-4.05029e+10
-3.98881e+10
-3.92654e+10
-3.87214e+10
-3.82905e+10
-3.7977e+10
-3.77678e+10
-3.76433e+10
-3.75842e+10
-3.75739e+10
-3.75976e+10
-3.76411e+10
-3.76903e+10
-3.77323e+10
-3.77562e+10
-3.77564e+10
-3.77344e+10
-3.77002e+10
-3.76703e+10
-3.76613e+10
-3.76876e+10
-3.77728e+10
-3.79797e+10
-3.83994e+10
-3.89529e+10
-3.89677e+10
-3.72066e+10
-3.39104e+10
-3.44603e+10
-4.65469e+10
-6.04202e+10
-3.16198e+10
-3.91676e+10
-3.91498e+10
-3.91655e+10
-3.9215e+10
-3.92812e+10
-3.9361e+10
-3.94642e+10
-3.95905e+10
-3.97431e+10
-3.99244e+10
-4.0131e+10
-4.03578e+10
-4.05976e+10
-4.08411e+10
-4.10756e+10
-4.12837e+10
-4.14441e+10
-4.15379e+10
-4.15576e+10
-4.15016e+10
-4.13473e+10
-4.10395e+10
-4.0545e+10
-3.99233e+10
-3.92949e+10
-3.87483e+10
-3.83173e+10
-3.80052e+10
-3.77984e+10
-3.76778e+10
-3.76244e+10
-3.76216e+10
-3.76542e+10
-3.77077e+10
-3.77677e+10
-3.78203e+10
-3.78538e+10
-3.78609e+10
-3.78414e+10
-3.78029e+10
-3.77591e+10
-3.77249e+10
-3.77134e+10
-3.77495e+10
-3.7901e+10
-3.82699e+10
-3.87965e+10
-3.88348e+10
-3.71554e+10
-3.39801e+10
-3.48085e+10
-4.746e+10
-6.07329e+10
-3.10115e+10
-3.91564e+10
-3.91673e+10
-3.9181e+10
-3.92153e+10
-3.92817e+10
-3.93646e+10
-3.94664e+10
-3.95996e+10
-3.97684e+10
-3.99722e+10
-4.02113e+10
-4.04819e+10
-4.07763e+10
-4.10827e+10
-4.13846e+10
-4.16591e+10
-4.18775e+10
-4.20124e+10
-4.20558e+10
-4.20183e+10
-4.18861e+10
-4.15622e+10
-4.09385e+10
-4.00802e+10
-3.92137e+10
-3.85027e+10
-3.79829e+10
-3.76424e+10
-3.74428e+10
-3.73462e+10
-3.73216e+10
-3.73459e+10
-3.74008e+10
-3.74708e+10
-3.75411e+10
-3.75976e+10
-3.76283e+10
-3.76258e+10
-3.75897e+10
-3.75268e+10
-3.74494e+10
-3.73697e+10
-3.72981e+10
-3.72578e+10
-3.73163e+10
-3.75745e+10
-3.79617e+10
-3.77994e+10
-3.58231e+10
-3.22447e+10
-3.25689e+10
-4.49315e+10
-5.9858e+10
-3.24043e+10
-3.91559e+10
-3.9162e+10
-3.91728e+10
-3.92075e+10
-3.927e+10
-3.93573e+10
-3.94658e+10
-3.96039e+10
-3.97764e+10
-3.99862e+10
-4.02325e+10
-4.0511e+10
-4.08133e+10
-4.11271e+10
-4.1435e+10
-4.17132e+10
-4.19325e+10
-4.20666e+10
-4.21074e+10
-4.2066e+10
-4.19266e+10
-4.15908e+10
-4.095e+10
-4.00686e+10
-3.91805e+10
-3.84555e+10
-3.79302e+10
-3.75898e+10
-3.73932e+10
-3.72999e+10
-3.72776e+10
-3.73021e+10
-3.73552e+10
-3.74215e+10
-3.74867e+10
-3.7537e+10
-3.75607e+10
-3.75508e+10
-3.75069e+10
-3.74361e+10
-3.73503e+10
-3.72613e+10
-3.71788e+10
-3.71249e+10
-3.71656e+10
-3.74006e+10
-3.7756e+10
-3.75435e+10
-3.54464e+10
-3.14593e+10
-3.07701e+10
-4.26775e+10
-6.10703e+10
-3.79759e+10
-3.90295e+10
-3.90424e+10
-3.90507e+10
-3.90739e+10
-3.91217e+10
-3.91928e+10
-3.92924e+10
-3.94303e+10
-3.9615e+10
-3.98526e+10
-4.01457e+10
-4.04917e+10
-4.08819e+10
-4.12999e+10
-4.17213e+10
-4.2113e+10
-4.24336e+10
-4.26415e+10
-4.27206e+10
-4.27047e+10
-4.26224e+10
-4.23418e+10
-4.158e+10
-4.03213e+10
-3.90095e+10
-3.8048e+10
-3.7445e+10
-3.71143e+10
-3.69635e+10
-3.69267e+10
-3.69604e+10
-3.70366e+10
-3.71364e+10
-3.72457e+10
-3.73517e+10
-3.74422e+10
-3.75067e+10
-3.75381e+10
-3.75353e+10
-3.75032e+10
-3.74499e+10
-3.73813e+10
-3.73004e+10
-3.72226e+10
-3.72071e+10
-3.7342e+10
-3.75302e+10
-3.70474e+10
-3.45544e+10
-3.00999e+10
-2.91489e+10
-4.15866e+10
-6.13239e+10
-4.17432e+10
-3.9034e+10
-3.9041e+10
-3.90482e+10
-3.90718e+10
-3.91234e+10
-3.9198e+10
-3.92963e+10
-3.94327e+10
-3.96146e+10
-3.98471e+10
-4.01329e+10
-4.0469e+10
-4.08468e+10
-4.12502e+10
-4.16555e+10
-4.20307e+10
-4.23356e+10
-4.25304e+10
-4.26016e+10
-4.25857e+10
-4.25117e+10
-4.22529e+10
-4.15332e+10
-4.0323e+10
-3.90412e+10
-3.80879e+10
-3.74779e+10
-3.71337e+10
-3.69685e+10
-3.69172e+10
-3.69358e+10
-3.6995e+10
-3.7075e+10
-3.71611e+10
-3.72403e+10
-3.73009e+10
-3.73336e+10
-3.73338e+10
-3.7303e+10
-3.72505e+10
-3.71894e+10
-3.71324e+10
-3.70896e+10
-3.70833e+10
-3.71804e+10
-3.74758e+10
-3.78744e+10
-3.76404e+10
-3.53871e+10
-3.10381e+10
-2.97978e+10
-4.13367e+10
-6.02626e+10
-3.80399e+10
-3.89641e+10
-3.89755e+10
-3.89927e+10
-3.90259e+10
-3.90767e+10
-3.91522e+10
-3.92618e+10
-3.94171e+10
-3.96303e+10
-3.99111e+10
-4.02631e+10
-4.06832e+10
-4.11595e+10
-4.16703e+10
-4.21837e+10
-4.26592e+10
-4.30484e+10
-4.33021e+10
-4.33982e+10
-4.33992e+10
-4.34288e+10
-4.33794e+10
-4.26188e+10
-4.07046e+10
-3.8531e+10
-3.72806e+10
-3.67009e+10
-3.6467e+10
-3.64326e+10
-3.64996e+10
-3.66136e+10
-3.6745e+10
-3.68792e+10
-3.70077e+10
-3.71235e+10
-3.72196e+10
-3.72901e+10
-3.73329e+10
-3.73519e+10
-3.73573e+10
-3.73623e+10
-3.73778e+10
-3.74118e+10
-3.74846e+10
-3.76594e+10
-3.80179e+10
-3.84331e+10
-3.81464e+10
-3.58757e+10
-3.19284e+10
-3.18344e+10
-4.38964e+10
-5.98859e+10
-3.34256e+10
-3.89847e+10
-3.89916e+10
-3.90157e+10
-3.90549e+10
-3.91124e+10
-3.91906e+10
-3.93006e+10
-3.94546e+10
-3.9664e+10
-3.99379e+10
-4.02799e+10
-4.06869e+10
-4.11481e+10
-4.16429e+10
-4.21408e+10
-4.26017e+10
-4.29769e+10
-4.32135e+10
-4.32884e+10
-4.32682e+10
-4.32744e+10
-4.32086e+10
-4.24902e+10
-4.06785e+10
-3.8599e+10
-3.73858e+10
-3.67988e+10
-3.65535e+10
-3.65114e+10
-3.65743e+10
-3.66862e+10
-3.68156e+10
-3.69459e+10
-3.70669e+10
-3.71696e+10
-3.72459e+10
-3.72893e+10
-3.72975e+10
-3.7275e+10
-3.72332e+10
-3.71885e+10
-3.7157e+10
-3.71538e+10
-3.72097e+10
-3.74025e+10
-3.78337e+10
-3.84015e+10
-3.83675e+10
-3.64461e+10
-3.29345e+10
-3.35209e+10
-4.62636e+10
-6.01037e+10
-3.04584e+10
-3.88937e+10
-3.88896e+10
-3.89043e+10
-3.8928e+10
-3.89591e+10
-3.90037e+10
-3.90751e+10
-3.91898e+10
-3.93657e+10
-3.96186e+10
-3.99582e+10
-4.03874e+10
-4.09028e+10
-4.14905e+10
-4.21202e+10
-4.27466e+10
-4.33116e+10
-4.37489e+10
-4.40091e+10
-4.41647e+10
-4.44641e+10
-4.49506e+10
-4.45377e+10
-4.15461e+10
-3.77504e+10
-3.61375e+10
-3.56337e+10
-3.55954e+10
-3.58021e+10
-3.60729e+10
-3.63357e+10
-3.65673e+10
-3.67644e+10
-3.69274e+10
-3.70554e+10
-3.71452e+10
-3.71938e+10
-3.72019e+10
-3.71762e+10
-3.71303e+10
-3.70822e+10
-3.70505e+10
-3.70531e+10
-3.71236e+10
-3.73401e+10
-3.77923e+10
-3.83464e+10
-3.82554e+10
-3.63975e+10
-3.35051e+10
-3.53214e+10
-4.85186e+10
-6.11808e+10
-3.11231e+10
-3.88983e+10
-3.89e+10
-3.89228e+10
-3.89555e+10
-3.89949e+10
-3.90466e+10
-3.91239e+10
-3.92423e+10
-3.94196e+10
-3.96708e+10
-4.0005e+10
-4.04247e+10
-4.09252e+10
-4.14922e+10
-4.20973e+10
-4.2697e+10
-4.32352e+10
-4.36419e+10
-4.38522e+10
-4.39369e+10
-4.41508e+10
-4.45734e+10
-4.42508e+10
-4.15805e+10
-3.7952e+10
-3.6334e+10
-3.57587e+10
-3.56802e+10
-3.5858e+10
-3.61097e+10
-3.63618e+10
-3.65885e+10
-3.67841e+10
-3.69473e+10
-3.70756e+10
-3.71646e+10
-3.72104e+10
-3.7212e+10
-3.71746e+10
-3.71108e+10
-3.70385e+10
-3.69761e+10
-3.69429e+10
-3.69756e+10
-3.71564e+10
-3.7581e+10
-3.812e+10
-3.80183e+10
-3.60966e+10
-3.28769e+10
-3.38199e+10
-4.67054e+10
-6.34839e+10
-4.0286e+10
-3.87578e+10
-3.87554e+10
-3.87617e+10
-3.87662e+10
-3.87699e+10
-3.8778e+10
-3.88083e+10
-3.88879e+10
-3.90502e+10
-3.93271e+10
-3.97436e+10
-4.03151e+10
-4.10474e+10
-4.19275e+10
-4.2902e+10
-4.38938e+10
-4.48178e+10
-4.56019e+10
-4.61573e+10
-4.65659e+10
-4.71582e+10
-4.81301e+10
-4.84826e+10
-4.48477e+10
-3.907e+10
-3.48212e+10
-3.44825e+10
-3.49102e+10
-3.5437e+10
-3.58926e+10
-3.62643e+10
-3.6565e+10
-3.68098e+10
-3.70065e+10
-3.71576e+10
-3.72623e+10
-3.73195e+10
-3.73305e+10
-3.73021e+10
-3.72486e+10
-3.71889e+10
-3.71422e+10
-3.71269e+10
-3.71764e+10
-3.73645e+10
-3.77692e+10
-3.824e+10
-3.80308e+10
-3.6083e+10
-3.31891e+10
-3.48066e+10
-4.73431e+10
-6.05688e+10
-3.18482e+10
-3.87611e+10
-3.87612e+10
-3.87724e+10
-3.87805e+10
-3.87876e+10
-3.87993e+10
-3.88323e+10
-3.89132e+10
-3.90746e+10
-3.93476e+10
-3.97558e+10
-4.03138e+10
-4.1026e+10
-4.18791e+10
-4.28333e+10
-4.3815e+10
-4.4729e+10
-4.548e+10
-4.59087e+10
-4.61144e+10
-4.65152e+10
-4.7431e+10
-4.79727e+10
-4.51281e+10
-3.97416e+10
-3.48552e+10
-3.44863e+10
-3.491e+10
-3.54332e+10
-3.58816e+10
-3.62459e+10
-3.6541e+10
-3.67836e+10
-3.69816e+10
-3.71374e+10
-3.72503e+10
-3.73197e+10
-3.73472e+10
-3.73402e+10
-3.73128e+10
-3.72833e+10
-3.72698e+10
-3.7289e+10
-3.73713e+10
-3.75852e+10
-3.79998e+10
-3.84422e+10
-3.81047e+10
-3.57958e+10
-3.20987e+10
-3.2414e+10
-4.46828e+10
-6.27205e+10
-4.13075e+10
-3.87188e+10
-3.87331e+10
-3.87297e+10
-3.87199e+10
-3.87008e+10
-3.86815e+10
-3.86842e+10
-3.87464e+10
-3.89133e+10
-3.92252e+10
-3.97065e+10
-4.0363e+10
-4.11857e+10
-4.21377e+10
-4.31471e+10
-4.41461e+10
-4.50732e+10
-4.58633e+10
-4.64401e+10
-4.69235e+10
-4.75516e+10
-4.85506e+10
-4.94551e+10
-4.84496e+10
-4.31149e+10
-2.85609e+10
-3.13464e+10
-3.3503e+10
-3.47322e+10
-3.54851e+10
-3.59931e+10
-3.63595e+10
-3.66367e+10
-3.68497e+10
-3.701e+10
-3.71219e+10
-3.71874e+10
-3.72111e+10
-3.72025e+10
-3.71777e+10
-3.71565e+10
-3.71569e+10
-3.71937e+10
-3.72916e+10
-3.751e+10
-3.79083e+10
-3.83198e+10
-3.79843e+10
-3.58098e+10
-3.25526e+10
-3.38573e+10
-4.66605e+10
-6.05375e+10
-3.38616e+10
-3.87101e+10
-3.87264e+10
-3.87255e+10
-3.8719e+10
-3.87059e+10
-3.86941e+10
-3.87044e+10
-3.87714e+10
-3.8938e+10
-3.92442e+10
-3.97172e+10
-4.03663e+10
-4.11817e+10
-4.2132e+10
-4.31643e+10
-4.41799e+10
-4.50907e+10
-4.58503e+10
-4.63168e+10
-4.65909e+10
-4.71429e+10
-4.84592e+10
-4.94445e+10
-4.8799e+10
-4.57892e+10
-2.86203e+10
-3.13091e+10
-3.34678e+10
-3.47181e+10
-3.54849e+10
-3.59991e+10
-3.63667e+10
-3.66423e+10
-3.68536e+10
-3.70135e+10
-3.71271e+10
-3.71971e+10
-3.72288e+10
-3.72327e+10
-3.72254e+10
-3.72269e+10
-3.72554e+10
-3.73245e+10
-3.74569e+10
-3.7708e+10
-3.81295e+10
-3.85303e+10
-3.80776e+10
-3.55923e+10
-3.21148e+10
-3.45244e+10
-4.9928e+10
-6.21311e+10
-3.17189e+10
-3.86888e+10
-3.87013e+10
-3.86976e+10
-3.8685e+10
-3.86626e+10
-3.86403e+10
-3.86418e+10
-3.87066e+10
-3.88824e+10
-3.92064e+10
-3.96959e+10
-4.03567e+10
-4.11801e+10
-4.2127e+10
-4.31444e+10
-4.41619e+10
-4.5098e+10
-4.58863e+10
-4.64819e+10
-4.69959e+10
-4.76852e+10
-4.86496e+10
-4.89074e+10
-4.45418e+10
-2.20239e+10
-3.08411e+10
-3.31364e+10
-3.44842e+10
-3.53102e+10
-3.58546e+10
-3.62347e+10
-3.65128e+10
-3.67203e+10
-3.68723e+10
-3.69754e+10
-3.70336e+10
-3.70527e+10
-3.70442e+10
-3.70253e+10
-3.70167e+10
-3.70365e+10
-3.70978e+10
-3.72215e+10
-3.74609e+10
-3.78762e+10
-3.83231e+10
-3.80823e+10
-3.60513e+10
-3.27979e+10
-3.35282e+10
-4.51958e+10
-6.02706e+10
-3.93166e+10
-3.8677e+10
-3.8702e+10
-3.8695e+10
-3.86876e+10
-3.86721e+10
-3.86586e+10
-3.8668e+10
-3.87366e+10
-3.89088e+10
-3.92246e+10
-3.9709e+10
-4.03683e+10
-4.119e+10
-4.21393e+10
-4.31614e+10
-4.41787e+10
-4.5093e+10
-4.58237e+10
-4.63145e+10
-4.65971e+10
-4.71163e+10
-4.83625e+10
-4.98166e+10
-4.89387e+10
-2.2981e+10
-3.08526e+10
-3.31046e+10
-3.44617e+10
-3.53053e+10
-3.58647e+10
-3.62578e+10
-3.65474e+10
-3.67657e+10
-3.6928e+10
-3.7041e+10
-3.71083e+10
-3.71354e+10
-3.71327e+10
-3.71172e+10
-3.7109e+10
-3.71266e+10
-3.71831e+10
-3.73001e+10
-3.75325e+10
-3.7942e+10
-3.8379e+10
-3.8096e+10
-3.59879e+10
-3.29538e+10
-3.52112e+10
-4.92828e+10
-6.169e+10
-3.03792e+10
-3.87424e+10
-3.87489e+10
-3.87582e+10
-3.87586e+10
-3.87546e+10
-3.87522e+10
-3.87716e+10
-3.88466e+10
-3.90196e+10
-3.93253e+10
-3.97803e+10
-4.03965e+10
-4.11745e+10
-4.20847e+10
-4.30832e+10
-4.40784e+10
-4.49702e+10
-4.57131e+10
-4.62429e+10
-4.65764e+10
-4.70115e+10
-4.77992e+10
-4.85079e+10
-4.71414e+10
-3.73961e+10
-3.33542e+10
-3.3433e+10
-3.42457e+10
-3.50297e+10
-3.56289e+10
-3.60733e+10
-3.64103e+10
-3.66743e+10
-3.68847e+10
-3.70507e+10
-3.71755e+10
-3.72606e+10
-3.731e+10
-3.73324e+10
-3.73428e+10
-3.7359e+10
-3.73962e+10
-3.74645e+10
-3.7581e+10
-3.77968e+10
-3.81801e+10
-3.86231e+10
-3.84819e+10
-3.67359e+10
-3.40134e+10
-3.57291e+10
-4.82618e+10
-6.01554e+10
-3.02001e+10
-3.87363e+10
-3.87527e+10
-3.87628e+10
-3.87721e+10
-3.87799e+10
-3.87927e+10
-3.88277e+10
-3.89148e+10
-3.90911e+10
-3.93904e+10
-3.98339e+10
-4.0429e+10
-4.11668e+10
-4.20184e+10
-4.29418e+10
-4.3866e+10
-4.47043e+10
-4.53641e+10
-4.58055e+10
-4.61514e+10
-4.67547e+10
-4.76854e+10
-4.80351e+10
-4.67582e+10
-3.82574e+10
-3.31393e+10
-3.32287e+10
-3.41069e+10
-3.49474e+10
-3.55862e+10
-3.60577e+10
-3.64149e+10
-3.66956e+10
-3.69211e+10
-3.71009e+10
-3.72384e+10
-3.73345e+10
-3.73925e+10
-3.74207e+10
-3.74331e+10
-3.74473e+10
-3.74786e+10
-3.75377e+10
-3.76424e+10
-3.78444e+10
-3.82094e+10
-3.86222e+10
-3.84203e+10
-3.6521e+10
-3.3366e+10
-3.42523e+10
-4.67959e+10
-6.24565e+10
-3.74694e+10
-3.89361e+10
-3.89464e+10
-3.89701e+10
-3.89982e+10
-3.90326e+10
-3.90775e+10
-3.91451e+10
-3.9255e+10
-3.94312e+10
-3.96945e+10
-4.00566e+10
-4.05212e+10
-4.10821e+10
-4.17178e+10
-4.23934e+10
-4.30503e+10
-4.36138e+10
-4.40133e+10
-4.41943e+10
-4.42078e+10
-4.4308e+10
-4.46318e+10
-4.43239e+10
-4.14548e+10
-3.80123e+10
-3.62743e+10
-3.56578e+10
-3.55728e+10
-3.57578e+10
-3.60109e+10
-3.62634e+10
-3.6492e+10
-3.66935e+10
-3.68675e+10
-3.70128e+10
-3.71268e+10
-3.72076e+10
-3.7256e+10
-3.72785e+10
-3.72868e+10
-3.72957e+10
-3.73168e+10
-3.73561e+10
-3.74265e+10
-3.75749e+10
-3.78703e+10
-3.82243e+10
-3.80395e+10
-3.63149e+10
-3.35299e+10
-3.48603e+10
-4.75693e+10
-6.27656e+10
-3.6367e+10
-3.8926e+10
-3.89345e+10
-3.89588e+10
-3.89882e+10
-3.90256e+10
-3.90756e+10
-3.915e+10
-3.92676e+10
-3.9451e+10
-3.97198e+10
-4.00853e+10
-4.05483e+10
-4.10978e+10
-4.17089e+10
-4.23451e+10
-4.29545e+10
-4.34742e+10
-4.3838e+10
-4.4014e+10
-4.40972e+10
-4.43358e+10
-4.4745e+10
-4.43536e+10
-4.15905e+10
-3.80337e+10
-3.61532e+10
-3.55176e+10
-3.54664e+10
-3.56938e+10
-3.59812e+10
-3.62586e+10
-3.65052e+10
-3.67198e+10
-3.69037e+10
-3.70562e+10
-3.71751e+10
-3.72586e+10
-3.73077e+10
-3.73292e+10
-3.73357e+10
-3.73431e+10
-3.73652e+10
-3.74107e+10
-3.74939e+10
-3.76606e+10
-3.79739e+10
-3.83341e+10
-3.81196e+10
-3.62089e+10
-3.26344e+10
-3.19387e+10
-4.31263e+10
-6.36604e+10
-4.71541e+10
-3.90439e+10
-3.90521e+10
-3.90755e+10
-3.91111e+10
-3.91614e+10
-3.92312e+10
-3.93296e+10
-3.94689e+10
-3.96624e+10
-3.99208e+10
-4.02498e+10
-4.06474e+10
-4.11022e+10
-4.15912e+10
-4.20806e+10
-4.25271e+10
-4.28827e+10
-4.3102e+10
-4.31558e+10
-4.30859e+10
-4.30123e+10
-4.28706e+10
-4.21072e+10
-4.03242e+10
-3.83755e+10
-3.71956e+10
-3.65937e+10
-3.63328e+10
-3.62956e+10
-3.63737e+10
-3.65045e+10
-3.66517e+10
-3.67971e+10
-3.693e+10
-3.70427e+10
-3.71288e+10
-3.71845e+10
-3.72101e+10
-3.72118e+10
-3.72018e+10
-3.71952e+10
-3.72046e+10
-3.72376e+10
-3.73085e+10
-3.74659e+10
-3.77807e+10
-3.8169e+10
-3.80459e+10
-3.64335e+10
-3.38008e+10
-3.50688e+10
-4.6873e+10
-6.01463e+10
-3.13798e+10
-3.90262e+10
-3.90318e+10
-3.90565e+10
-3.90917e+10
-3.91421e+10
-3.92126e+10
-3.93129e+10
-3.94559e+10
-3.96556e+10
-3.99234e+10
-4.02651e+10
-4.06784e+10
-4.11507e+10
-4.16578e+10
-4.21645e+10
-4.26257e+10
-4.29903e+10
-4.32109e+10
-4.32697e+10
-4.3224e+10
-4.31836e+10
-4.30377e+10
-4.22084e+10
-4.03122e+10
-3.82417e+10
-3.70125e+10
-3.64306e+10
-3.62121e+10
-3.62179e+10
-3.63305e+10
-3.64861e+10
-3.66503e+10
-3.68067e+10
-3.6946e+10
-3.70614e+10
-3.71471e+10
-3.71994e+10
-3.7219e+10
-3.72127e+10
-3.71934e+10
-3.71774e+10
-3.71789e+10
-3.7207e+10
-3.72765e+10
-3.74332e+10
-3.77415e+10
-3.81067e+10
-3.79142e+10
-3.60607e+10
-3.26946e+10
-3.26433e+10
-4.43563e+10
-6.2051e+10
-4.01294e+10
-3.91625e+10
-3.91694e+10
-3.91906e+10
-3.92241e+10
-3.92738e+10
-3.93442e+10
-3.94428e+10
-3.95781e+10
-3.97584e+10
-3.99899e+10
-4.0275e+10
-4.06106e+10
-4.09864e+10
-4.13839e+10
-4.17765e+10
-4.21315e+10
-4.24131e+10
-4.25885e+10
-4.2641e+10
-4.25945e+10
-4.24704e+10
-4.21406e+10
-4.1328e+10
-4.00315e+10
-3.87102e+10
-3.77526e+10
-3.71653e+10
-3.68521e+10
-3.67223e+10
-3.67043e+10
-3.67498e+10
-3.68268e+10
-3.69148e+10
-3.69992e+10
-3.70689e+10
-3.71151e+10
-3.71327e+10
-3.71216e+10
-3.70889e+10
-3.70478e+10
-3.70156e+10
-3.70074e+10
-3.70336e+10
-3.71122e+10
-3.72942e+10
-3.76492e+10
-3.80764e+10
-3.79451e+10
-3.62153e+10
-3.33313e+10
-3.4259e+10
-4.58713e+10
-5.91834e+10
-3.16114e+10
-3.91643e+10
-3.9166e+10
-3.91888e+10
-3.92213e+10
-3.92695e+10
-3.93375e+10
-3.9433e+10
-3.95647e+10
-3.97414e+10
-3.997e+10
-4.02532e+10
-4.05888e+10
-4.09674e+10
-4.13715e+10
-4.17759e+10
-4.21473e+10
-4.24472e+10
-4.26379e+10
-4.27037e+10
-4.26733e+10
-4.25642e+10
-4.22317e+10
-4.13879e+10
-4.00402e+10
-3.86754e+10
-3.77106e+10
-3.71391e+10
-3.6844e+10
-3.67282e+10
-3.67192e+10
-3.67696e+10
-3.68487e+10
-3.6937e+10
-3.70206e+10
-3.70889e+10
-3.71331e+10
-3.71485e+10
-3.7135e+10
-3.70997e+10
-3.7056e+10
-3.70202e+10
-3.70061e+10
-3.70217e+10
-3.70803e+10
-3.72267e+10
-3.75222e+10
-3.78558e+10
-3.75665e+10
-3.55649e+10
-3.24827e+10
-3.42275e+10
-4.81159e+10
-6.15696e+10
-3.19222e+10
-3.92724e+10
-3.92843e+10
-3.93088e+10
-3.93468e+10
-3.94009e+10
-3.94745e+10
-3.95724e+10
-3.97001e+10
-3.98617e+10
-4.00599e+10
-4.02939e+10
-4.05592e+10
-4.08466e+10
-4.11424e+10
-4.14281e+10
-4.16804e+10
-4.18718e+10
-4.19786e+10
-4.19945e+10
-4.19315e+10
-4.1775e+10
-4.14242e+10
-4.07647e+10
-3.98599e+10
-3.89441e+10
-3.81965e+10
-3.76595e+10
-3.7312e+10
-3.71082e+10
-3.70045e+10
-3.69668e+10
-3.69696e+10
-3.69939e+10
-3.7024e+10
-3.70468e+10
-3.70514e+10
-3.70307e+10
-3.69831e+10
-3.69145e+10
-3.68377e+10
-3.67691e+10
-3.6723e+10
-3.67092e+10
-3.67443e+10
-3.68768e+10
-3.71657e+10
-3.74765e+10
-3.70986e+10
-3.48564e+10
-3.10222e+10
-3.06273e+10
-4.20656e+10
-5.92972e+10
-3.87939e+10
-3.92922e+10
-3.93005e+10
-3.93267e+10
-3.93641e+10
-3.9417e+10
-3.94881e+10
-3.95824e+10
-3.97049e+10
-3.986e+10
-4.005e+10
-4.02745e+10
-4.05294e+10
-4.08063e+10
-4.10926e+10
-4.13707e+10
-4.16178e+10
-4.18061e+10
-4.19122e+10
-4.19307e+10
-4.18742e+10
-4.17282e+10
-4.13919e+10
-4.07528e+10
-3.98686e+10
-3.89707e+10
-3.82367e+10
-3.77071e+10
-3.73598e+10
-3.71508e+10
-3.70388e+10
-3.69914e+10
-3.69845e+10
-3.69999e+10
-3.70223e+10
-3.70392e+10
-3.704e+10
-3.70181e+10
-3.69725e+10
-3.69095e+10
-3.68415e+10
-3.67843e+10
-3.67502e+10
-3.6745e+10
-3.67791e+10
-3.68942e+10
-3.7142e+10
-3.73756e+10
-3.68469e+10
-3.43913e+10
-3.08515e+10