/*--------------------------------*- C++ -*----------------------------------*\
| =========                 |                                                 |
| \\      /  F ield         | OpenFOAM: The Open Source CFD Toolbox           |
|  \\    /   O peration     | Version:  4.1                                   |
|   \\  /    A nd           | Web:      www.OpenFOAM.org                      |
|    \\/     M anipulation  |                                                 |
\*---------------------------------------------------------------------------*/
FoamFile
{
    version     2.0;
    format      ascii;
    class       volVectorField;
    location    "70";
    object      U;
}
// * * * * * * * * * * * * * * * * * * * * * * * * * * * * * * * * * * * * * //

dimensions      [0 1 -1 0 0 0 0];

internalField   nonuniform List<vector> 
4432
(
(-138200 -3453.8 -397.011)
(-144842 -3594.97 -1065.17)
(-146423 -3340.21 -959.427)
(-148632 -3582.35 -1517.88)
(-150793 -3598.75 -1782.98)
(-152812 -3610.08 -1921.91)
(-154545 -3650.33 -2136.2)
(-156197 -3674.53 -2315.58)
(-157738 -3701 -2501.44)
(-159168 -3734.04 -2700.81)
(-160466 -3775.16 -2917.56)
(-161603 -3821.84 -3160.07)
(-162545 -3873.62 -3429.66)
(-163251 -3930.8 -3721.95)
(-163682 -3993.89 -4029.49)
(-163778 -4062.21 -4351.08)
(-163507 -4133.39 -4681.16)
(-162866 -4209.81 -5026.54)
(-161851 -4294.8 -5390.63)
(-160441 -4389.27 -5761.49)
(-158624 -4492.69 -6126.07)
(-156418 -4608.07 -6478.32)
(-153862 -4734.68 -6802.98)
(-151005 -4872.17 -7089.31)
(-147908 -5017.8 -7327.27)
(-144613 -5169.42 -7513.95)
(-141176 -5324.11 -7646.98)
(-137637 -5479.6 -7727.52)
(-134053 -5632.35 -7755.44)
(-130463 -5778.88 -7732.3)
(-126919 -5914.61 -7659.14)
(-123462 -6034.62 -7537.51)
(-120124 -6133.82 -7371.72)
(-116948 -6207.31 -7165.03)
(-113955 -6251.86 -6922.17)
(-111172 -6264.65 -6648.72)
(-108618 -6244.11 -6353.99)
(-106301 -6187.47 -6049.77)
(-104237 -6090.33 -5747.65)
(-102457 -5963.36 -5456.93)
(-100850 -5826.59 -5217.95)
(-99414.6 -5668.33 -5002.05)
(-98113.7 -5477.77 -4781.81)
(-96977.9 -5240.91 -4501.06)
(-96349 -4936.76 -4071.97)
(-96998.2 -4527.81 -3418.4)
(-99227.7 -3971.8 -2535.53)
(-100753 -3181.42 -1216.13)
(-97214.4 -1786.16 1247.53)
(-91904.9 1174.8 6829.05)
(-106457 8638.93 12919.9)
(-152338 18582.2 16062.5)
(-177289 28787.1 -5833.65)
(-57725.6 9752.63 -8816.72)
(-199040 3235.99 813.285)
(-202847 3191.26 243.873)
(-204231 3415.39 -14.69)
(-205872 3279.73 -255.726)
(-207239 3313.56 -498.375)
(-208584 3349.88 -635.605)
(-209698 3368.34 -809.314)
(-210707 3401.67 -961.54)
(-211624 3436.29 -1121)
(-212438 3469.11 -1285.31)
(-213128 3498.85 -1461.31)
(-213676 3527.31 -1654.76)
(-214061 3554.68 -1866.13)
(-214264 3581.02 -2091.57)
(-214261 3605.79 -2327.52)
(-214033 3631.8 -2576.01)
(-213565 3662.05 -2835.57)
(-212850 3697.46 -3099.52)
(-211885 3738.35 -3364.5)
(-210666 3783.67 -3622.91)
(-209192 3834.74 -3868.52)
(-207487 3889.58 -4092.82)
(-205589 3948.46 -4285.61)
(-203544 4011.86 -4438.52)
(-201405 4080.62 -4545.41)
(-199215 4155.85 -4604.93)
(-197020 4237.44 -4617.2)
(-194855 4325.71 -4584.82)
(-192757 4420.03 -4510.4)
(-190755 4520.55 -4397.55)
(-188874 4627.03 -4250.03)
(-187132 4739.18 -4071.56)
(-185534 4857.05 -3866.45)
(-184085 4979.26 -3638.82)
(-182775 5103.71 -3393.65)
(-181589 5227.68 -3136.73)
(-180501 5349.73 -2873.75)
(-179475 5468.99 -2610.94)
(-178470 5580.19 -2352.65)
(-177441 5671.36 -2104.26)
(-176372 5744.78 -1874.15)
(-175209 5803.63 -1645.44)
(-173871 5848.76 -1393.54)
(-172291 5881.76 -1084.99)
(-170568 5907.72 -670.321)
(-169022 5942.61 -103.693)
(-167676 6010.97 613.832)
(-164991 6158.62 1581.02)
(-158331 6590.74 3150.76)
(-148886 7793.75 5966.1)
(-152127 10561.3 7616.06)
(-174297 13981.7 4687.1)
(-180216 10677.1 159.275)
(32794.8 5828.38 -19867.1)
(-270619 -2022.85 7388.31)
(-272345 -2068.65 6579)
(-273227 -2123.96 6547.64)
(-274181 -2073.78 6182.85)
(-274885 -2071.5 5976.47)
(-275670 -2055.78 5901.47)
(-276357 -2041.27 5821.83)
(-276961 -2021.5 5757.66)
(-277520 -2004.09 5683.81)
(-278020 -1986.08 5594.69)
(-278450 -1971.38 5481.99)
(-278796 -1958.34 5335.7)
(-279038 -1946.33 5152.01)
(-279156 -1935.1 4931.16)
(-279136 -1926.81 4674.97)
(-278959 -1921.5 4384.66)
(-278611 -1920.09 4065.52)
(-278085 -1916.62 3733.46)
(-277437 -1909.08 3407.93)
(-276711 -1898.45 3094.88)
(-275891 -1887.61 2798.64)
(-274995 -1875.14 2532.32)
(-274047 -1861.55 2313.71)
(-273078 -1846.34 2157.01)
(-272122 -1828.73 2072.69)
(-271197 -1808.05 2062.18)
(-270324 -1784.02 2124.12)
(-269509 -1756.81 2252.86)
(-268768 -1726.75 2443.61)
(-268106 -1694.37 2689.77)
(-267537 -1660.12 2986.23)
(-267070 -1624.4 3328.23)
(-266717 -1587 3712.42)
(-266492 -1547.98 4135.66)
(-266403 -1508.53 4592.29)
(-266468 -1470.39 5075.35)
(-266703 -1433.27 5576.38)
(-267136 -1395.85 6087.11)
(-267818 -1357.64 6600.42)
(-268784 -1320.65 7116.76)
(-270172 -1278.25 7644.93)
(-272027 -1229.03 8184.39)
(-274386 -1165.17 8749.87)
(-277334 -1077.44 9369.52)
(-281081 -949.762 10067.1)
(-286055 -747.099 10842.4)
(-292771 -410.833 11602)
(-300620 121.05 12235.1)
(-307034 1084.53 13173.9)
(-314697 2839.88 14901.7)
(-332178 5056.89 16120.8)
(-400300 7213.94 8721.7)
(-474567 11262.4 -10369.1)
(-447330 17464.2 -13021.2)
(-311035 1871.4 4507.35)
(-311819 1715.17 3768.41)
(-312260 1607.6 3487.21)
(-312748 1589.9 3300.15)
(-313204 1538.64 3100.77)
(-313731 1500.74 3014.1)
(-314213 1463.72 2940.59)
(-314658 1433.57 2880.85)
(-315099 1402.88 2812.83)
(-315518 1374.67 2738.11)
(-315908 1345.76 2648.18)
(-316254 1318.07 2534.42)
(-316539 1292.53 2393)
(-316748 1269.91 2226.06)
(-316878 1248.48 2038)
(-316917 1226.83 1832.13)
(-316864 1203.69 1610.92)
(-316723 1183.16 1380.19)
(-316492 1165.31 1145.47)
(-316168 1149.31 913.845)
(-315753 1132.68 692.099)
(-315255 1116.92 492.733)
(-314692 1101.94 329.52)
(-314086 1088.79 214.417)
(-313463 1078.61 154.767)
(-312832 1072.98 151.214)
(-312211 1072.65 201.057)
(-311599 1078.51 298.321)
(-311007 1090.85 437.284)
(-310434 1110.2 611.343)
(-309892 1136.76 815.057)
(-309384 1171.06 1043.63)
(-308917 1214.09 1293.41)
(-308504 1266.51 1561.64)
(-308151 1328.28 1845.31)
(-307876 1398.84 2141.75)
(-307695 1479.61 2446.87)
(-307633 1572.82 2754.02)
(-307721 1679.27 3058.78)
(-307991 1796.94 3363.48)
(-308498 1917.28 3671.62)
(-309289 2040.37 3981.49)
(-310375 2170.53 4301.4)
(-311787 2307.19 4657.04)
(-313659 2451.56 5078.03)
(-316312 2614.49 5566.63)
(-319858 2803.37 6078.75)
(-323289 2998.13 6651.9)
(-323747 3397.65 7715.13)
(-321802 3841.08 9747.23)
(-323690 4709.52 11140.8)
(-347252 216.2 8778.57)
(-331485 8531.99 -12887.6)
(-288258 2110.87 -4890.99)
(-237260 -2159.38 2437.73)
(-235525 -2201.95 1351.37)
(-235025 -2347.6 903.702)
(-234448 -2291.78 609.094)
(-233881 -2304.75 262.131)
(-233407 -2321.9 -12.5887)
(-232962 -2338.35 -234.113)
(-232530 -2348.36 -454.04)
(-232104 -2363.07 -684.393)
(-231682 -2377.16 -930.671)
(-231262 -2393.66 -1205.43)
(-230844 -2411.04 -1514.68)
(-230415 -2430.28 -1861.37)
(-229979 -2450.54 -2245.68)
(-229539 -2471.04 -2668.34)
(-229086 -2494.21 -3127.22)
(-228585 -2523.23 -3625.52)
(-227983 -2561.44 -4150.08)
(-227215 -2610.17 -4689.74)
(-226204 -2662.44 -5240.04)
(-224955 -2714.97 -5789.33)
(-223462 -2766.9 -6312.91)
(-221746 -2819.01 -6785.18)
(-219849 -2870.51 -7180.45)
(-217817 -2921.17 -7482.96)
(-215690 -2970.05 -7689.06)
(-213499 -3017.32 -7803.55)
(-211264 -3063.56 -7837.92)
(-209002 -3109.69 -7804.55)
(-206724 -3156.18 -7717.51)
(-204437 -3203.18 -7588.65)
(-202137 -3250.94 -7426.6)
(-199824 -3299.75 -7234.27)
(-197485 -3349.29 -7015.17)
(-195108 -3397.91 -6773.09)
(-192685 -3443.83 -6507.13)
(-190196 -3484.56 -6214.96)
(-187625 -3517.32 -5893.08)
(-184963 -3539.75 -5541.13)
(-182184 -3548.71 -5164.06)
(-179241 -3540.31 -4771.55)
(-176120 -3510.64 -4359.97)
(-172767 -3453.86 -3908.42)
(-169158 -3353.9 -3394.79)
(-165464 -3173.45 -2809.92)
(-162347 -2867.32 -2148.87)
(-159951 -2332.27 -1533.13)
(-156476 -1352.53 -1127.65)
(-148345 636.598 -998.991)
(-138133 4065.52 -942.033)
(-149020 10914.4 546.488)
(-197579 18020.1 1371.69)
(-217430 30301.2 -7358.44)
(-90060.8 10407 -5274.39)
(-262883 3226.14 2061.59)
(-262096 3241.78 1236.31)
(-261849 3135.17 958.075)
(-261605 3216.74 744.098)
(-261542 3233.11 513.496)
(-261527 3244.78 323.519)
(-261548 3257.26 192.102)
(-261598 3275.7 57.7337)
(-261674 3290.13 -85.0527)
(-261761 3305.18 -242.043)
(-261858 3318.08 -422.947)
(-261958 3329.84 -634.703)
(-262048 3339.07 -882.856)
(-262121 3345.82 -1171.46)
(-262167 3350.5 -1500.5)
(-262151 3351.27 -1870.22)
(-262023 3345.85 -2281.38)
(-261758 3330.82 -2725.61)
(-261342 3305.64 -3186.22)
(-260763 3276.76 -3649.07)
(-260016 3246.62 -4099.35)
(-259103 3215.81 -4515.9)
(-258043 3183.66 -4875.17)
(-256871 3150.79 -5156.3)
(-255625 3117.44 -5346.99)
(-254334 3084.55 -5446.02)
(-253022 3052.04 -5459.61)
(-251702 3019.54 -5400.04)
(-250382 2986.33 -5279.86)
(-249066 2952.03 -5112.25)
(-247754 2916.38 -4907.84)
(-246435 2879.1 -4675.02)
(-245104 2839.54 -4418.55)
(-243741 2797.49 -4139.83)
(-242329 2753.84 -3838.75)
(-240845 2709.35 -3513.89)
(-239260 2664.87 -3163.33)
(-237542 2620.53 -2784.1)
(-235663 2575.8 -2376.24)
(-233579 2531.6 -1943.21)
(-231230 2492.63 -1489.49)
(-228557 2458.05 -1013.63)
(-225480 2427.29 -509.741)
(-221923 2406.72 32.3899)
(-217939 2415.62 613)
(-213799 2482.58 1197.12)
(-209539 2671.71 1719.76)
(-203447 3105.81 2163.7)
(-192812 4085.46 2675.48)
(-178607 5766.42 3312.08)
(-180195 8152.14 4119.87)
(-198728 10095.1 3078.08)
(-205211 9564.81 990.549)
(20421 7696.76 -4688.73)
(-256701 -2831.98 4935.87)
(-257382 -2890.29 4722.13)
(-257773 -2914.81 4521.37)
(-258347 -2910.87 4494.07)
(-258967 -2919.58 4429.17)
(-259591 -2940.87 4369.17)
(-260236 -2954.8 4312.41)
(-260903 -2969.9 4249.23)
(-261585 -2989.61 4165.41)
(-262268 -3011.02 4048.17)
(-262936 -3036.41 3886.37)
(-263566 -3064.7 3677.34)
(-264124 -3096.97 3413.41)
(-264584 -3134.87 3088)
(-264923 -3178.08 2696.46)
(-265108 -3225.65 2238.26)
(-265134 -3275.79 1721.2)
(-265048 -3332.69 1163.56)
(-264856 -3395.4 583.053)
(-264565 -3462.33 6.19418)
(-264176 -3530.73 -540.825)
(-263693 -3600.37 -1029.2)
(-263144 -3670.76 -1427.43)
(-262573 -3742.17 -1706.75)
(-262030 -3814.08 -1853.19)
(-261556 -3886.15 -1867.57)
(-261174 -3958.41 -1764.34)
(-260898 -4031.51 -1564.72)
(-260731 -4106.15 -1291.46)
(-260675 -4182.32 -965.704)
(-260727 -4259.67 -604.026)
(-260879 -4338.6 -218.733)
(-261129 -4419.83 183.724)
(-261477 -4501.17 599.988)
(-261920 -4579.27 1031.39)
(-262461 -4653.35 1482.86)
(-263105 -4721.8 1959.81)
(-263859 -4783.05 2471.62)
(-264728 -4838.48 3027.71)
(-265731 -4889.86 3640.97)
(-266902 -4940.23 4340.85)
(-268269 -4995.2 5166)
(-269845 -5065.85 6157.58)
(-271677 -5163.95 7366.01)
(-273987 -5300.44 8850.2)
(-277311 -5477.12 10679.9)
(-282063 -5674.16 12953.9)
(-287356 -5822.16 15767.8)
(-290215 -5613.39 18992.7)
(-293423 -4985.07 23289.4)
(-311341 -4158.25 29219.7)
(-376010 -2939.29 31360.8)
(-424320 11801.3 1605.31)
(-447341 26474.2 -9917.95)
(-264311 3087.98 4393.16)
(-264641 3020.53 4063.11)
(-264882 3000.93 3973.7)
(-265261 3005.24 3862.21)
(-265739 2998.18 3771.87)
(-266197 2979.64 3685.48)
(-266654 2969.27 3600.99)
(-267132 2958.85 3502.28)
(-267616 2944.89 3388.71)
(-268089 2930.13 3244.21)
(-268539 2912.85 3059.07)
(-268947 2894.33 2829.51)
(-269288 2873.52 2550.69)
(-269539 2849.04 2215.5)
(-269682 2821.5 1820.02)
(-269692 2791.78 1367.45)
(-269560 2761.81 866.83)
(-269319 2727.45 332.831)
(-269001 2688.69 -219.161)
(-268602 2646.9 -773.27)
(-268123 2604.77 -1306.07)
(-267564 2562.38 -1792)
(-266945 2520.07 -2201.62)
(-266296 2477.29 -2510.68)
(-265650 2434.17 -2706.37)
(-265032 2390.67 -2790.58)
(-264447 2346.37 -2776.15)
(-263895 2300.27 -2682.55)
(-263367 2251.36 -2530.15)
(-262853 2199.27 -2337.79)
(-262343 2144.08 -2120.2)
(-261824 2085.33 -1888.22)
(-261290 2022.31 -1647.21)
(-260732 1956.77 -1398.49)
(-260147 1891.78 -1139.4)
(-259532 1828.15 -864.182)
(-258885 1767.29 -565.741)
(-258208 1710.19 -235.189)
(-257501 1654.94 135.511)
(-256778 1599.84 559.607)
(-256059 1542.15 1062.22)
(-255347 1475.66 1675.22)
(-254623 1388.28 2430.37)
(-253886 1267.67 3360.29)
(-253287 1101.98 4497.62)
(-253238 883.242 5878.34)
(-253931 622.752 7527.5)
(-254058 384.281 9386.68)
(-250297 454.148 11046.5)
(-244131 420.083 12543.1)
(-247231 360.843 12389)
(-274074 -5019.31 13537.2)
(-246791 9584.55 -11941.3)
(-143999 -766.673 -16021.4)
(-244618 -2697.05 1951.38)
(-244389 -2766.25 1636.93)
(-244265 -2759.8 1493.09)
(-244184 -2745.65 1333.66)
(-244189 -2742.83 1222.82)
(-244214 -2746.56 1121.77)
(-244265 -2752.4 1019.65)
(-244335 -2761.88 901.388)
(-244426 -2771.3 758.907)
(-244526 -2779.48 572.269)
(-244622 -2788.26 327.129)
(-244704 -2797.74 22.2642)
(-244757 -2806.41 -349.485)
(-244771 -2814.87 -794.333)
(-244735 -2822.69 -1312.74)
(-244630 -2828.34 -1900.1)
(-244430 -2830.26 -2551.9)
(-244095 -2830.81 -3271.37)
(-243596 -2835.31 -4046.18)
(-242924 -2846.97 -4853.48)
(-242064 -2865.16 -5660.13)
(-241009 -2891.65 -6426.72)
(-239783 -2928.02 -7103.79)
(-238440 -2976.56 -7648.66)
(-237055 -3036.56 -8037.43)
(-235693 -3106.8 -8271.59)
(-234404 -3184.69 -8371.85)
(-233220 -3268.63 -8369.5)
(-232158 -3356.83 -8297.94)
(-231224 -3447.32 -8185.62)
(-230420 -3538.11 -8053.68)
(-229737 -3628.17 -7917.19)
(-229171 -3716.81 -7785.61)
(-228714 -3801.97 -7660.61)
(-228362 -3880.67 -7537.47)
(-228110 -3950.64 -7411.29)
(-227957 -4010.93 -7277.96)
(-227907 -4060.26 -7131.72)
(-227974 -4097.3 -6964.92)
(-228179 -4123.37 -6768.04)
(-228538 -4141.84 -6536.34)
(-229061 -4155.99 -6265.22)
(-229731 -4173.36 -5955.64)
(-230555 -4201.82 -5613)
(-231729 -4248.18 -5236.74)
(-233803 -4319.52 -4788.27)
(-237225 -4415.93 -4165.97)
(-240926 -4546.44 -3331.63)
(-241710 -4577.93 -1844.39)
(-241739 -5105.38 683.789)
(-260147 -6873.71 4461.13)
(-330217 -10740.3 9149.35)
(-386567 11250.1 46063.1)
(-485740 10100 122763)
(-232099 3235.43 2524.53)
(-231374 3159.33 2198.2)
(-231085 3170.08 2050.91)
(-230825 3188.23 1856.19)
(-230717 3195.77 1725.07)
(-230624 3197.42 1622.59)
(-230568 3198.12 1512.98)
(-230540 3196.2 1382.57)
(-230540 3195.48 1229.08)
(-230562 3197.22 1031.88)
(-230597 3199.41 779.889)
(-230632 3201.82 466.548)
(-230655 3205.91 84.2623)
(-230659 3210.94 -373.808)
(-230635 3217.46 -910.159)
(-230564 3226.87 -1521.71)
(-230414 3240.98 -2205.37)
(-230101 3257.77 -2957.45)
(-229550 3271.55 -3766.65)
(-228746 3278.84 -4606.63)
(-227665 3280.19 -5446.17)
(-226300 3273.73 -6244.03)
(-224677 3257.8 -6950.14)
(-222860 3230.06 -7519.91)
(-220938 3191.29 -7928.97)
(-218997 3143.01 -8177.78)
(-217106 3088.08 -8286.36)
(-215314 3029.22 -8285.87)
(-213647 2968.89 -8210.08)
(-212121 2909.39 -8088.84)
(-210735 2852.79 -7945.09)
(-209479 2800.52 -7795.05)
(-208338 2753.87 -7648.24)
(-207291 2715.72 -7509.24)
(-206317 2690.09 -7377.75)
(-205391 2680.52 -7251.89)
(-204486 2690.98 -7130.02)
(-203582 2725.68 -7009.45)
(-202655 2786.64 -6884.61)
(-201690 2874.32 -6748.25)
(-200665 2988.48 -6592.68)
(-199533 3127.92 -6408.89)
(-198211 3286.88 -6184.9)
(-196627 3457.66 -5903.55)
(-194904 3634.91 -5544.43)
(-193475 3816.16 -5069.33)
(-192512 4000.95 -4406.65)
(-190154 4185.68 -3553.54)
(-182810 4559.18 -2516.69)
(-171698 4601.22 -1473.47)
(-178522 2280.06 3127.47)
(-220663 -4907.47 20559.6)
(-274816 11188 64512.8)
(-204276 -11568.7 26535.5)
(-237373 -2063.66 4364.54)
(-237442 -2091.97 4310.55)
(-237547 -2100.89 4335.13)
(-237731 -2099.96 4317.12)
(-237987 -2103.61 4320)
(-238282 -2100.75 4309.85)
(-238613 -2094.31 4285.79)
(-238976 -2090.5 4237.21)
(-239374 -2086.82 4154.97)
(-239800 -2079.35 4020.18)
(-240228 -2066.02 3816.72)
(-240631 -2050.3 3531.23)
(-240989 -2033.06 3152.05)
(-241278 -2016.22 2670.07)
(-241475 -2001.92 2085.64)
(-241555 -1991.05 1404.51)
(-241501 -1985.33 637.929)
(-241315 -1986.2 -194.065)
(-240987 -1993.22 -1069.83)
(-240508 -2002.55 -1961.2)
(-239863 -2013.95 -2832.05)
(-239040 -2026.84 -3631.44)
(-238061 -2042.64 -4290.51)
(-236993 -2062.3 -4748.7)
(-235922 -2086.9 -4975.66)
(-234922 -2115.81 -4983.06)
(-234035 -2147.9 -4810)
(-233276 -2182.23 -4510.05)
(-232640 -2218.08 -4136.29)
(-232112 -2255.18 -3732.41)
(-231673 -2293.85 -3329.76)
(-231305 -2335.26 -2949.13)
(-230988 -2380.61 -2602.98)
(-230704 -2431.4 -2294.93)
(-230437 -2489.28 -2021.57)
(-230172 -2557.55 -1778.22)
(-229891 -2639.89 -1559.38)
(-229571 -2740.47 -1355.39)
(-229195 -2862.18 -1157.65)
(-228741 -3007.8 -961.066)
(-228183 -3179.88 -760.184)
(-227474 -3380.57 -549.865)
(-226539 -3608.39 -329.299)
(-225313 -3859.4 -104.346)
(-223883 -4127.28 113.481)
(-222562 -4401.4 328.906)
(-221434 -4659.78 573.891)
(-218790 -4827.03 838.625)
(-211638 -4952.79 1202.53)
(-198950 -5142.34 1469.67)
(-194153 -4504.94 4069.7)
(-207510 405.125 14874.6)
(-258277 27535 73890.7)
(-167013 22308 18394.4)
(-244838 3114.65 3689.01)
(-245195 3095.1 3709.11)
(-245506 3098.32 3688.65)
(-245961 3112.27 3638.33)
(-246498 3122.95 3613.63)
(-247095 3141.9 3592.12)
(-247762 3166.27 3560.12)
(-248489 3190.39 3503.7)
(-249271 3216.84 3409.96)
(-250100 3249.78 3264.1)
(-250951 3291.52 3052.81)
(-251797 3339.04 2762.42)
(-252608 3391.76 2380.67)
(-253352 3448.06 1899.68)
(-253991 3505.99 1318.44)
(-254484 3564.59 639.422)
(-254800 3622.23 -132.1)
(-254946 3676.31 -977.896)
(-254952 3724.62 -1870.8)
(-254818 3768.65 -2782.51)
(-254521 3807.48 -3678.74)
(-254042 3839.95 -4505.64)
(-253398 3863.36 -5193.43)
(-252642 3875.95 -5677.29)
(-251855 3876.67 -5925.64)
(-251108 3866.98 -5945.71)
(-250449 3849.23 -5774.46)
(-249903 3825.8 -5463.29)
(-249478 3798.74 -5065.11)
(-249169 3769.49 -4625)
(-248966 3738.66 -4176.34)
(-248854 3705.77 -3741.7)
(-248816 3670.02 -3335.18)
(-248831 3630.11 -2962.06)
(-248883 3584.22 -2620.01)
(-248954 3528.84 -2304.89)
(-249023 3459.58 -2013.03)
(-249070 3371.1 -1740.43)
(-249074 3259.52 -1482.81)
(-249009 3121.28 -1235.76)
(-248844 2952.57 -993.867)
(-248528 2748.77 -753.217)
(-247986 2508.02 -510.784)
(-247147 2232.03 -261.006)
(-246080 1925.88 8.52995)
(-245068 1596.03 325.364)
(-244188 1254.51 715.677)
(-241958 947.417 1190.08)
(-235533 612.003 1685.58)
(-225114 -31.042 2207.26)
(-223188 -625.879 5008.92)
(-228894 -1016.12 11711)
(-211770 14457.7 62593.7)
(-23119 13024.9 36701.3)
(-222086 -606.89 1248.37)
(-222147 -574.113 1297.18)
(-222225 -622.117 1294.48)
(-222387 -642.489 1285.79)
(-222619 -675.039 1270.3)
(-222896 -700.65 1241.04)
(-223208 -729.779 1194.4)
(-223554 -768.344 1120.42)
(-223946 -817.595 1002.18)
(-224379 -873.317 826.797)
(-224831 -935.798 585.254)
(-225285 -1006.76 257.38)
(-225719 -1086.24 -173.305)
(-226106 -1174.4 -718.098)
(-226413 -1271.85 -1378.66)
(-226589 -1376.28 -2155.36)
(-226584 -1486.01 -3040.2)
(-226339 -1599.5 -4025.22)
(-225834 -1715.79 -5090.49)
(-225041 -1832.4 -6211.66)
(-223922 -1946.99 -7359.25)
(-222437 -2054.69 -8466.57)
(-220601 -2152.61 -9422.54)
(-218525 -2237.49 -10106.3)
(-216382 -2309.51 -10458.2)
(-214335 -2368.43 -10495.2)
(-212498 -2417.05 -10283.3)
(-210921 -2459.08 -9901.82)
(-209611 -2498.89 -9422.91)
(-208540 -2540.68 -8901.17)
(-207668 -2587.89 -8372.85)
(-206954 -2643.01 -7858.56)
(-206353 -2707.91 -7367.58)
(-205824 -2782.55 -6902.59)
(-205332 -2864.41 -6463.28)
(-204844 -2951.88 -6047.88)
(-204336 -3045.82 -5654.15)
(-203779 -3148.51 -5278.64)
(-203147 -3262.38 -4914.15)
(-202412 -3389.87 -4555.09)
(-201541 -3531.99 -4194.14)
(-200485 -3688.58 -3817.81)
(-199158 -3856.15 -3410.82)
(-197485 -4026.09 -2954)
(-195550 -4186.12 -2416.58)
(-193711 -4318.72 -1757.88)
(-192078 -4408.02 -936.355)
(-188959 -4356.13 182.241)
(-180443 -4049.83 1756.68)
(-165248 -3542.86 4880.28)
(-159349 -2368.54 11493.7)
(-168320 1373.33 19501.9)
(-171377 29937.6 50957.6)
(-27548.6 19645.5 15137.8)
(-232003 3753.81 4133.08)
(-231704 3797.15 4235.96)
(-231724 3800.14 4261.17)
(-231751 3822.68 4272.61)
(-231893 3843.89 4292.13)
(-232103 3878.47 4309.18)
(-232393 3917.88 4312.79)
(-232756 3956.37 4297.5)
(-233195 3993 4246.5)
(-233708 4032.19 4145.46)
(-234282 4073.87 3980.21)
(-234901 4116.2 3732.19)
(-235544 4158.66 3383.75)
(-236188 4200.09 2921.87)
(-236807 4238.38 2341.19)
(-237370 4273.78 1642.42)
(-237844 4308.37 832.557)
(-238198 4344.14 -76.4622)
(-238398 4382.08 -1069.78)
(-238405 4424.3 -2120.3)
(-238205 4476.99 -3215.2)
(-237767 4543.08 -4298.48)
(-237116 4622.6 -5264.41)
(-236350 4714.83 -6000.97)
(-235604 4815 -6447.66)
(-234988 4919.25 -6615.07)
(-234557 5021.89 -6557.22)
(-234316 5117.7 -6340.55)
(-234237 5201.42 -6026.95)
(-234276 5268.27 -5664.25)
(-234387 5314.64 -5285.41)
(-234530 5337.55 -4909.79)
(-234669 5334.93 -4548.75)
(-234776 5307.33 -4204.06)
(-234828 5256.21 -3869.53)
(-234798 5182.51 -3556.81)
(-234653 5082.96 -3264.52)
(-234362 4953.99 -2986.17)
(-233891 4791.93 -2712.51)
(-233206 4592.54 -2434.7)
(-232264 4352.61 -2143.7)
(-231005 4070.13 -1827.04)
(-229331 3745.64 -1473.09)
(-227148 3382.92 -1074.87)
(-224484 2986.64 -633.251)
(-221581 2562.8 -169.299)
(-218439 2119.38 263.342)
(-213717 1727.59 718.871)
(-204137 1458.57 1504.05)
(-189532 1228.65 3042.55)
(-181433 1542.22 3968.06)
(-197923 1397.73 10226.5)
(-190263 10449.2 23844.6)
(98942.1 10663.8 2776.53)
(-236749 -1146.61 468.777)
(-236597 -1165.93 767.572)
(-236615 -1242.28 897.825)
(-236698 -1311.64 1063.42)
(-236866 -1387.65 1208.77)
(-237096 -1460.35 1353.17)
(-237390 -1540.25 1485.48)
(-237753 -1628.65 1585.08)
(-238193 -1722.03 1629.72)
(-238692 -1815.77 1602.24)
(-239225 -1909.85 1479.05)
(-239770 -2002.48 1231.55)
(-240291 -2090.77 832.584)
(-240743 -2172.36 259.765)
(-241091 -2247.54 -491.928)
(-241309 -2318.92 -1423.06)
(-241348 -2387.41 -2518.24)
(-241172 -2455.08 -3747.21)
(-240760 -2524.93 -5072.17)
(-240092 -2597.23 -6464.18)
(-239110 -2672.95 -7894.69)
(-237722 -2759.43 -9281.02)
(-235902 -2861.55 -10443.5)
(-233772 -2986.08 -11162.9)
(-231566 -3131.49 -11334.3)
(-229502 -3291.3 -11020.9)
(-227718 -3455.17 -10364.6)
(-226272 -3617.21 -9510.29)
(-225170 -3772.01 -8576.27)
(-224387 -3917.99 -7643.93)
(-223884 -4055.67 -6760.97)
(-223617 -4185.55 -5948.98)
(-223544 -4308.91 -5213)
(-223626 -4426.41 -4549.33)
(-223823 -4540.15 -3951.82)
(-224097 -4649.8 -3413.91)
(-224411 -4756.75 -2929.13)
(-224728 -4862.02 -2494.52)
(-225010 -4968.22 -2109.89)
(-225214 -5078.87 -1776.32)
(-225289 -5202.52 -1500.71)
(-225163 -5352.89 -1297.7)
(-224738 -5544.66 -1184.81)
(-223934 -5796.84 -1183.46)
(-222836 -6142.14 -1328.02)
(-221775 -6641.03 -1664.29)
(-220816 -7365.2 -2271.84)
(-218496 -8385.08 -3084.72)
(-210706 -9701.17 -4215.32)
(-197781 -11294.5 -4979.45)
(-192457 -12970.2 -6186.74)
(-201498 -13513.5 -2485.81)
(-204882 -51728.8 11263.8)
(13725.5 2003.5 -24275)
(-229211 2193.58 5780.14)
(-229222 2214.81 6075.13)
(-229436 2224.24 6278.85)
(-229719 2228.66 6486.98)
(-230105 2241.79 6701.68)
(-230593 2266.67 6920.38)
(-231190 2294.41 7132.24)
(-231893 2322.46 7323.95)
(-232704 2353.46 7478.4)
(-233610 2391.37 7573.3)
(-234588 2435.12 7582.44)
(-235611 2484.45 7475.85)
(-236634 2539.69 7223.21)
(-237609 2601 6798.21)
(-238477 2668.21 6182.13)
(-239175 2740.27 5367.31)
(-239641 2815.69 4360.67)
(-239825 2892.77 3186.59)
(-239696 2969.89 1876.15)
(-239239 3044.27 484.966)
(-238330 3102.61 -930.419)
(-236899 3141.93 -2288.31)
(-234936 3160.44 -3408.57)
(-232610 3156 -4078.29)
(-230221 3133.86 -4200.06)
(-228052 3101.17 -3849.61)
(-226284 3065.3 -3176.23)
(-224991 3035.54 -2326.61)
(-224166 3015.3 -1420.81)
(-223760 3005.69 -538.844)
(-223706 3006.07 273.528)
(-223933 3014.54 994.38)
(-224384 3031.56 1612.63)
(-224998 3055.24 2133.12)
(-225726 3077.06 2577.82)
(-226557 3096.48 2970.59)
(-227485 3115.28 3305.9)
(-228507 3137.37 3591.16)
(-229631 3166.08 3832.58)
(-230871 3203.86 4040.39)
(-232249 3254.4 4224.18)
(-233781 3322.29 4384.16)
(-235461 3408.15 4512.75)
(-237300 3507.79 4582.86)
(-239463 3602.03 4531.6)
(-242371 3645.97 4245.64)
(-246318 3591.17 3475.36)
(-249503 3373.2 1859.3)
(-246772 3069.54 -1087.11)
(-234090 2518.87 -5297.15)
(-222288 880.441 -10181)
(-237931 2279.7 -15260.2)
(-211753 4283.52 -69278.4)
(-35820.2 10050.2 -33851.7)
(-241537 -2434.14 370.864)
(-241109 -2546.39 744.752)
(-240925 -2616.56 921.357)
(-240762 -2707.63 1143.81)
(-240670 -2790.62 1349.01)
(-240624 -2873.29 1548.86)
(-240644 -2963.78 1728.49)
(-240742 -3059.23 1864.91)
(-240922 -3153.58 1942.73)
(-241179 -3245.39 1943.28)
(-241502 -3334.35 1831.75)
(-241874 -3419.22 1571.97)
(-242266 -3498.56 1127.3)
(-242637 -3572.06 465.522)
(-242939 -3641.22 -420.631)
(-243111 -3705.33 -1534.82)
(-243092 -3762.86 -2861.31)
(-242837 -3811.01 -4357.47)
(-242336 -3846.69 -5963.43)
(-241591 -3866.13 -7639.94)
(-240541 -3858.84 -9365.88)
(-239041 -3818.5 -11062.9)
(-237024 -3746.42 -12462.5)
(-234724 -3653.42 -13165)
(-232607 -3559.79 -12962)
(-231043 -3488.91 -12008.2)
(-230145 -3454.7 -10602.2)
(-229863 -3460.32 -8991.67)
(-230073 -3503.45 -7354.19)
(-230645 -3579.78 -5788.58)
(-231469 -3685.46 -4338.4)
(-232465 -3819 -3009.97)
(-233586 -3981.61 -1790.88)
(-234809 -4175.89 -657.977)
(-236127 -4402.96 415.215)
(-237545 -4663.82 1452.6)
(-239080 -4963.1 2480.07)
(-240756 -5304.69 3523.09)
(-242605 -5692.05 4606.46)
(-244667 -6129.32 5751.88)
(-246992 -6620.18 6977.8)
(-249629 -7168.25 8296.55)
(-252620 -7778.81 9707.77)
(-256052 -8463.88 11184.1)
(-260167 -9244.17 12648.2)
(-265499 -10164.2 13946)
(-272461 -11284.9 14732.5)
(-279470 -12725.2 14754.7)
(-282345 -14722.4 13239.8)
(-277929 -17986.6 8763.6)
(-269886 -24425.1 -675.759)
(-284697 -40932.6 -11661.6)
(-227386 -23739 -69682.3)
(-114490 -11457.1 -37388.9)
(-248187 2991.62 6449.42)
(-248701 3109.4 6761.35)
(-249133 3198.34 6946.05)
(-249705 3289.4 7158.54)
(-250345 3396.25 7354.37)
(-251084 3514.23 7528.78)
(-251919 3634.57 7677.36)
(-252848 3758.47 7781.5)
(-253871 3889.87 7823.26)
(-254976 4028.14 7778.79)
(-256144 4170.27 7616.09)
(-257341 4313.02 7300.44)
(-258519 4452.42 6797.44)
(-259621 4583.47 6078.41)
(-260579 4700.45 5125.3)
(-261318 4797.92 3935.81)
(-261756 4872.32 2527.06)
(-261829 4922.82 941.733)
(-261510 4951.5 -770.254)
(-260804 4961.8 -2550.99)
(-259664 4965.11 -4402.25)
(-257902 4965.37 -6246.5)
(-255401 4961.51 -7831.97)
(-252313 4948.88 -8773.26)
(-249046 4923.43 -8854.34)
(-245987 4882.28 -8206.44)
(-243330 4827.05 -7111.41)
(-241120 4762.44 -5808.88)
(-239332 4693.59 -4478.15)
(-237903 4624.2 -3223.44)
(-236761 4555.69 -2093.8)
(-235845 4487.56 -1101.49)
(-235109 4418.9 -247.731)
(-234520 4348.76 479.352)
(-234045 4274.82 1107.82)
(-233662 4194.54 1700.24)
(-233362 4107.25 2257.12)
(-233141 4012.27 2798.39)
(-233003 3912.05 3345.52)
(-232962 3811.17 3918.69)
(-233039 3716 4537.83)
(-233255 3633.53 5221.44)
(-233632 3571.51 5984.04)
(-234243 3533.25 6827.51)
(-235365 3510.44 7730.07)
(-237654 3469.69 8634.38)
(-241722 3363.25 9325.14)
(-246645 3207.63 9319.56)
(-248448 2742.74 7719.87)
(-246852 1355.05 2422.55)
(-254017 -1055.77 -10163.1)
(-304666 -3160.23 -35438.2)
(-324684 -9709.38 -95672.6)
(-215545 -5622.88 -33819)
(-240904 -4645.31 -1527.19)
(-240310 -4736.8 -1174.4)
(-240032 -4744.79 -948.871)
(-239764 -4787.23 -667.375)
(-239584 -4822.92 -369.079)
(-239470 -4870.05 -56.302)
(-239442 -4925.97 254.395)
(-239513 -4988.69 547.486)
(-239690 -5057.87 802.781)
(-239981 -5135.5 987.215)
(-240388 -5221.15 1054.29)
(-240899 -5314.35 947.91)
(-241480 -5413.83 605.076)
(-242084 -5518.51 -35.7642)
(-242633 -5627.28 -1011.71)
(-243024 -5741.27 -2349.63)
(-243119 -5860.14 -4033.67)
(-242804 -5980.35 -5995.97)
(-242021 -6101.72 -8140.96)
(-240747 -6222.08 -10416.6)
(-238842 -6338.25 -12853.4)
(-235906 -6443.91 -15456.5)
(-231498 -6527.17 -17908.4)
(-225749 -6563.94 -19449.6)
(-219552 -6528.41 -19467.8)
(-213889 -6424.84 -18169.5)
(-209186 -6276.96 -16251.6)
(-205496 -6107.11 -14172.3)
(-202714 -5934.72 -12198.3)
(-200644 -5780.01 -10445.3)
(-199118 -5643.15 -8939.08)
(-198000 -5522.4 -7659.92)
(-197189 -5413.41 -6570.08)
(-196619 -5310.22 -5627.38)
(-196246 -5210.87 -4792.1)
(-196037 -5118.67 -4027.54)
(-195970 -5032.51 -3295.73)
(-196031 -4952.66 -2556.91)
(-196214 -4879.99 -1767.05)
(-196519 -4816.47 -873.963)
(-196949 -4764.43 183.848)
(-197503 -4725.51 1478.43)
(-198176 -4700.06 3092.93)
(-199029 -4685.33 5102.29)
(-200360 -4681.62 7560.68)
(-202886 -4696.72 10487.8)
(-207230 -4733.74 13776.1)
(-212283 -4702.34 17099.6)
(-214489 -4463.88 19230.6)
(-214648 -4267.56 18406.4)
(-230931 -5178.7 16743.9)
(-292576 -10887.7 12304.6)
(-329179 -19824.8 -30144.7)
(-209529 17973.3 -5179.91)
(-250898 4936.35 6479.09)
(-251204 5069.28 6912.24)
(-251396 5171.8 7138.5)
(-251667 5269.38 7441.6)
(-251977 5368.4 7738.14)
(-252330 5458.99 8041.78)
(-252731 5539.42 8348.78)
(-253188 5609.6 8641.54)
(-253707 5667.52 8898.1)
(-254292 5708.61 9088.96)
(-254941 5729.94 9173.2)
(-255642 5728.39 9100.32)
(-256370 5701.55 8813.72)
(-257091 5647.75 8259.09)
(-257758 5568.17 7394)
(-258314 5466.9 6197.73)
(-258695 5352.03 4680.59)
(-258847 5232.78 2893.85)
(-258772 5118.47 910.935)
(-258495 5021.62 -1223.96)
(-257878 4960.99 -3523.22)
(-256564 4946.24 -5981.53)
(-254196 4987.03 -8326.62)
(-250896 5095.85 -9884.41)
(-247385 5272.73 -10077)
(-244364 5488.3 -9074.71)
(-242046 5706.1 -7511.62)
(-240355 5902.75 -5793.64)
(-239131 6066.15 -4149.98)
(-238221 6204.62 -2675.61)
(-237494 6322.58 -1390.56)
(-236864 6424.59 -273.571)
(-236285 6517.01 701.877)
(-235737 6605.84 1558.41)
(-235218 6692.38 2337.88)
(-234744 6776.42 3108.8)
(-234326 6864.22 3883.85)
(-233992 6957.33 4686.44)
(-233777 7056.93 5538.45)
(-233727 7163.98 6459.55)
(-233895 7279.81 7468.43)
(-234339 7406.8 8582.57)
(-235118 7548.58 9819.89)
(-236356 7711.27 11194.4)
(-238407 7898.22 12722.6)
(-242040 8101.41 14409.6)
(-248111 8312.65 16232.5)
(-256104 8601.8 17976.7)
(-263141 9049.67 19117.7)
(-269445 9605.9 18745.2)
(-299137 10593 17051.2)
(-397164 10872.5 6390.8)
(-514646 447.389 -47516.6)
(-523669 12762.3 -81631.7)
(-242897 -5137.44 55.8033)
(-242873 -5218.52 595.3)
(-242966 -5224.98 927.795)
(-243101 -5259.76 1314.76)
(-243330 -5289.01 1707.68)
(-243647 -5321.34 2107.19)
(-244082 -5349.23 2495.41)
(-244657 -5374.26 2855.98)
(-245393 -5393.77 3157.94)
(-246312 -5404.84 3357.4)