/*--------------------------------*- C++ -*----------------------------------*\
| =========                 |                                                 |
| \\      /  F ield         | OpenFOAM: The Open Source CFD Toolbox           |
|  \\    /   O peration     | Version:  4.1                                   |
|   \\  /    A nd           | Web:      www.OpenFOAM.org                      |
|    \\/     M anipulation  |                                                 |
\*---------------------------------------------------------------------------*/
FoamFile
{
    version     2.0;
    format      ascii;
    class       surfaceScalarField;
    location    "89";
    object      phi;
}
// * * * * * * * * * * * * * * * * * * * * * * * * * * * * * * * * * * * * * //

dimensions      [0 3 -1 0 0 0 0];

internalField   nonuniform List<scalar> 
11516
(
-3.75031e+10
8.43285e+06
3.77327e+08
-3.77953e+10
-2.58858e+07
3.43702e+08
-3.8084e+10
-2.07933e+07
3.34232e+08
-3.83541e+10
-2.8908e+07
3.22999e+08
-3.86222e+10
-2.7438e+07
3.18552e+08
-3.88897e+10
-2.72529e+07
3.16804e+08
-3.9154e+10
-2.7564e+07
3.12976e+08
-3.9415e+10
-2.71922e+07
3.08397e+08
-3.96699e+10
-2.67429e+07
3.01054e+08
-3.99143e+10
-2.61332e+07
2.88835e+08
-4.01422e+10
-2.52619e+07
2.70775e+08
-4.03484e+10
-2.41784e+07
2.48071e+08
-4.05219e+10
-2.26335e+07
2.15965e+08
-4.06566e+10
-2.08523e+07
1.78302e+08
-4.07434e+10
-1.88728e+07
1.3101e+08
-4.0776e+10
-1.6535e+07
7.66016e+07
-4.07505e+10
-1.42858e+07
1.57447e+07
-4.06578e+10
-1.31926e+07
-5.15448e+07
-4.04962e+10
-1.36604e+07
-1.20982e+08
-4.02629e+10
-1.43629e+07
-1.93193e+08
-3.99603e+10
-1.62152e+07
-2.67102e+08
-3.95939e+10
-1.8078e+07
-3.35134e+08
-3.9168e+10
-2.00317e+07
-4.00103e+08
-3.86946e+10
-2.13856e+07
-4.52183e+08
-3.81827e+10
-2.20531e+07
-4.95193e+08
-3.76499e+10
-2.17909e+07
-5.21023e+08
-3.71086e+10
-2.05874e+07
-5.35563e+08
-3.65773e+10
-1.83157e+07
-5.32748e+08
-3.60682e+10
-1.50426e+07
-5.18909e+08
-3.55954e+10
-1.08204e+07
-4.92216e+08
-3.51713e+10
-5.84618e+06
-4.54081e+08
-3.48036e+10
-539663
-4.09029e+08
-3.45018e+10
4.211e+06
-3.54007e+08
-3.42693e+10
6.98867e+06
-2.93521e+08
-3.41085e+10
6.85807e+06
-2.27502e+08
-3.40215e+10
3.27703e+06
-1.55099e+08
-3.4006e+10
-5.18252e+06
-7.91437e+07
-3.40613e+10
-1.99469e+07
4.04205e+06
-3.41822e+10
-4.12385e+07
9.11535e+07
-3.43662e+10
-6.88221e+07
1.86335e+08
-3.46078e+10
-1.03756e+08
2.89787e+08
-3.48976e+10
-1.48483e+08
4.02282e+08
-3.52272e+10
-2.05935e+08
5.29193e+08
-3.5597e+10
-2.7918e+08
6.79962e+08
-3.60386e+10
-3.67727e+08
8.79384e+08
-3.66403e+10
-4.62877e+08
1.16166e+09
-3.75389e+10
-5.46958e+08
1.53656e+09
-3.88303e+10
-6.37026e+08
1.94702e+09
-4.04904e+10
-8.82074e+08
2.39853e+09
-4.2246e+10
-1.44291e+09
2.87142e+09
-4.49559e+10
-2.47321e+09
4.39683e+09
-5.00148e+10
-3.56929e+09
7.91485e+09
-6.04387e+10
-8.93301e+09
1.88824e+10
-1.49687e+09
1.13735e+10
-4.61882e+10
4.06832e+08
-4.65965e+10
3.97306e+08
-4.69793e+10
3.76659e+08
-4.73635e+10
3.69605e+08
-4.77376e+10
3.6037e+08
-4.81061e+10
3.54588e+08
-4.8468e+10
3.47188e+08
-4.88214e+10
3.38548e+08
-4.91634e+10
3.27192e+08
-4.94892e+10
3.11029e+08
-4.97925e+10
2.89159e+08
-5.00685e+10
2.63366e+08
-5.03066e+10
2.28293e+08
-5.05015e+10
1.88479e+08
-5.06444e+10
1.40176e+08
-5.07296e+10
8.50724e+07
-5.07531e+10
2.62986e+07
-5.07119e+10
-3.72099e+07
-5.06091e+10
-9.92706e+07
-5.04433e+10
-1.65005e+08
-5.02147e+10
-2.32071e+08
-4.9931e+10
-2.92917e+08
-4.95945e+10
-3.50931e+08
-4.92178e+10
-3.9551e+08
-4.88074e+10
-4.32121e+08
-4.83792e+10
-4.51703e+08
-4.7942e+10
-4.6172e+08
-4.75114e+10
-4.54934e+08
-4.70958e+10
-4.38781e+08
-4.67065e+10
-4.1065e+08
-4.63533e+10
-3.71926e+08
-4.60415e+10
-3.27617e+08
-4.57813e+10
-2.73634e+08
-4.55797e+10
-2.14505e+08
-4.54449e+10
-1.4968e+08
-4.53861e+10
-7.86084e+07
-4.54096e+10
-5.62595e+06
-4.55264e+10
7.32994e+07
-4.57441e+10
1.54675e+08
-4.60734e+10
2.43011e+08
-4.65263e+10
3.39608e+08
-4.71162e+10
4.44497e+08
-4.7862e+10
5.60643e+08
-4.87943e+10
6.95788e+08
-4.99676e+10
8.69876e+08
-5.1462e+10
1.11191e+09
-5.33692e+10
1.43307e+09
-5.57531e+10
1.78423e+09
-5.88444e+10
2.14998e+09
-6.3286e+10
2.77324e+09
-7.13289e+10
5.28767e+09
-8.49038e+10
9.68753e+09
-1.13407e+11
1.94177e+10
9.86099e+09
-6.62843e+10
1.31096e+08
3.45113e+08
-6.63799e+10
1.27396e+08
3.29523e+08
-6.64794e+10
1.26191e+08
3.25377e+08
-6.65861e+10
1.26672e+08
3.20645e+08
-6.66942e+10
1.26295e+08
3.17878e+08
-6.68056e+10
1.26648e+08
3.18823e+08
-6.69207e+10
1.27041e+08
3.18062e+08
-6.70391e+10
1.27528e+08
3.16022e+08
-6.71568e+10
1.27918e+08
3.07258e+08
-6.72747e+10
1.28334e+08
2.94595e+08
-6.73907e+10
1.28741e+08
2.74113e+08
-6.75012e+10
1.29168e+08
2.45481e+08
-6.76033e+10
1.29838e+08
2.06577e+08
-6.76936e+10
1.30364e+08
1.57855e+08
-6.77681e+10
1.31191e+08
9.7728e+07
-6.78298e+10
1.31455e+08
3.03539e+07
-6.78769e+10
1.32498e+08
-4.39264e+07
-6.7914e+10
1.3429e+08
-1.23715e+08
-6.79371e+10
1.36883e+08
-2.07809e+08
-6.79488e+10
1.38596e+08
-2.94982e+08
-6.79508e+10
1.40034e+08
-3.81929e+08
-6.7945e+10
1.41643e+08
-4.63355e+08
-6.79361e+10
1.43883e+08
-5.37055e+08
-6.79228e+10
1.47103e+08
-5.99321e+08
-6.79138e+10
1.51341e+08
-6.43842e+08
-6.79063e+10
1.56647e+08
-6.74777e+08
-6.79074e+10
1.62921e+08
-6.88092e+08
-6.7914e+10
1.70132e+08
-6.88309e+08
-6.79295e+10
1.78163e+08
-6.75013e+08
-6.79487e+10
1.86921e+08
-6.54595e+08
-6.79697e+10
1.96213e+08
-6.25104e+08
-6.79891e+10
2.05792e+08
-5.92255e+08
-6.79992e+10
2.15298e+08
-5.56704e+08
-6.79961e+10
2.24485e+08
-5.18964e+08
-6.79712e+10
2.3361e+08
-4.83484e+08
-6.79158e+10
2.42621e+08
-4.49112e+08
-6.7819e+10
2.50281e+08
-4.19827e+08
-6.76656e+10
2.55788e+08
-3.94588e+08
-6.74443e+10
2.59702e+08
-3.73572e+08
-6.71416e+10
2.62869e+08
-3.53983e+08
-6.67455e+10
2.65913e+08
-3.34689e+08
-6.62444e+10
2.68678e+08
-3.12554e+08
-6.56108e+10
2.69026e+08
-2.95774e+08
-6.4815e+10
2.66341e+08
-2.75872e+08
-6.38261e+10
2.61389e+08
-2.33075e+08
-6.26067e+10
2.57931e+08
-1.46803e+08
-6.10999e+10
2.54453e+08
-3.17364e+07
-5.9244e+10
2.22089e+08
6.94895e+07
-5.69704e+10
1.04298e+08
2.01452e+08
-5.49136e+10
-4.4132e+07
9.81671e+08
-5.23918e+10
-3.48539e+08
2.38501e+09
-4.63923e+10
-8.89203e+08
2.91064e+09
-1.63916e+10
-5.74376e+09
-5.30385e+09
-3.59025e+09
-5.47401e+09
-7.73022e+10
6.24323e+08
-7.73886e+10
6.21679e+08
-7.74825e+10
6.07238e+08
-7.75805e+10
6.04685e+08
-7.76829e+10
5.99363e+08
-7.77885e+10
5.96995e+08
-7.78979e+10
5.9368e+08
-7.80113e+10
5.89292e+08
-7.81245e+10
5.77999e+08
-7.82393e+10
5.637e+08
-7.83541e+10
5.42209e+08
-7.84654e+10
5.1364e+08
-7.85722e+10
4.75584e+08
-7.86702e+10
4.29176e+08
-7.87568e+10
3.71287e+08
-7.8831e+10
3.0515e+08
-7.88867e+10
2.29234e+08
-7.89205e+10
1.46278e+08
-7.89279e+10
6.02695e+07
-7.89137e+10
-2.58594e+07
-7.88833e+10
-1.093e+08
-7.8837e+10
-1.86718e+08
-7.87785e+10
-2.56713e+08
-7.8703e+10
-3.16307e+08
-7.86184e+10
-3.58663e+08
-7.85183e+10
-3.88951e+08
-7.8409e+10
-4.02532e+08
-7.82847e+10
-4.04256e+08
-7.81479e+10
-3.93257e+08
-7.79917e+10
-3.7638e+08
-7.78136e+10
-3.50907e+08
-7.76098e+10
-3.23228e+08
-7.73724e+10
-2.936e+08
-7.70983e+10
-2.61911e+08
-7.67787e+10
-2.33007e+08
-7.64057e+10
-2.05271e+08
-7.59747e+10
-1.80877e+08
-7.54807e+10
-1.5663e+08
-7.49189e+10
-1.35062e+08
-7.42779e+10
-1.16822e+08
-7.35409e+10
-1.04746e+08
-7.26943e+10
-9.50804e+07
-7.17179e+10
-9.27896e+07
-7.05922e+10
-9.07621e+07
-6.92914e+10
-7.54148e+07
-6.77728e+10
-3.43264e+07
-6.59706e+10
1.5195e+07
-6.38823e+10
4.81957e+07
-6.16088e+10
9.57281e+07
-5.91744e+10
4.00523e+08
-5.46274e+10
4.86519e+08
-4.52005e+10
-5.5012e+08
-2.46748e+10
-6.62972e+09
-7.89447e+09
-5.60717e+10
3.49294e+07
2.11179e+08
-5.59744e+10
4.66784e+07
2.01974e+08
-5.5893e+10
4.09822e+07
2.19435e+08
-5.58302e+10
4.29334e+07
2.31162e+08
-5.57767e+10
4.06886e+07
2.399e+08
-5.57292e+10
3.91659e+07
2.48105e+08
-5.56896e+10
3.74152e+07
2.56673e+08
-5.5653e+10
3.53165e+07
2.5945e+08
-5.56233e+10
3.25807e+07
2.601e+08
-5.55959e+10
2.94108e+07
2.52662e+08
-5.55731e+10
2.5613e+07
2.40255e+08
-5.55532e+10
2.12183e+07
2.19216e+08
-5.55335e+10
1.61488e+07
1.86925e+08
-5.55104e+10
1.02978e+07
1.42844e+08
-5.54828e+10
3.45683e+06
8.83257e+07
-5.5439e+10
-6.0638e+06
1.50535e+07
-5.53663e+10
-1.83536e+07
-7.40879e+07
-5.52583e+10
-3.2357e+07
-1.75411e+08
-5.51056e+10
-4.50529e+07
-2.90092e+08
-5.49091e+10
-5.57832e+07
-4.12053e+08
-5.46709e+10
-6.3769e+07
-5.34122e+08
-5.43931e+10
-7.01215e+07
-6.53428e+08
-5.40842e+10
-7.40284e+07
-7.56885e+08
-5.3755e+10
-7.5286e+07
-8.3988e+08
-5.34157e+10
-7.34454e+07
-8.96342e+08
-5.30836e+10
-6.85787e+07
-9.24746e+08
-5.27721e+10
-6.08904e+07
-9.24987e+08
-5.2494e+10
-5.06984e+07
-9.02097e+08
-5.22586e+10
-3.84593e+07
-8.58456e+08
-5.20766e+10
-2.46999e+07
-7.98439e+08
-5.19496e+10
-1.01296e+07
-7.28285e+08
-5.18847e+10
4.39001e+06
-6.47489e+08
-5.1881e+10
1.84e+07
-5.63809e+08
-5.19386e+10
3.17967e+07
-4.76805e+08
-5.20612e+10
4.35262e+07
-3.85602e+08
-5.22449e+10
5.24361e+07
-2.95158e+08
-5.24932e+10
5.95343e+07
-2.03193e+08
-5.28116e+10
6.69102e+07
-1.07353e+08
-5.32042e+10
7.32132e+07
-8.05057e+06
-5.36645e+10
7.51636e+07
9.20339e+07
-5.41809e+10
6.92944e+07
1.93275e+08
-5.47282e+10
5.40753e+07
2.88933e+08
-5.52913e+10
2.93891e+07
3.82412e+08
-5.58387e+10
-5.7347e+06
4.67654e+08
-5.63183e+10
-5.18377e+07
5.41148e+08
-5.66552e+10
-1.08499e+08
5.94634e+08
-5.67839e+10
-1.84675e+08
6.19042e+08
-5.66102e+10
-3.20724e+08
5.73703e+08
-5.58195e+10
-5.84646e+08
3.49639e+08
-5.34728e+10
-8.78973e+08
-5.6292e+07
-4.95699e+10
-1.05736e+09
-1.29761e+07
-4.49333e+10
-1.57644e+09
3.49016e+08
-4.51778e+10
-9.53984e+09
5.09982e+09
-7.52629e+09
8.55428e+09
-6.60342e+10
4.96815e+08
-6.58332e+10
4.76333e+08
-6.56676e+10
4.91792e+08
-6.55085e+10
4.97564e+08
-6.53623e+10
5.02704e+08
-6.52237e+10
5.06328e+08
-6.50943e+10
5.10143e+08
-6.49691e+10
5.07773e+08
-6.48538e+10
5.0342e+08
-6.47435e+10
4.90791e+08
-6.46412e+10
4.73476e+08
-6.4546e+10
4.47728e+08
-6.4456e+10
4.10859e+08
-6.43688e+10
3.6286e+08
-6.42874e+10
3.05137e+08
-6.42076e+10
2.3226e+08
-6.41307e+10
1.47073e+08
-6.40566e+10
5.34631e+07
-6.39754e+10
-5.26007e+07
-6.38797e+10
-1.6434e+08
-6.37661e+10
-2.759e+08
-6.36312e+10
-3.83047e+08
-6.3481e+10
-4.7376e+08
-6.33218e+10
-5.44147e+08
-6.3158e+10
-5.89149e+08
-6.30005e+10
-6.07917e+08
-6.28556e+10
-6.00881e+08
-6.27293e+10
-5.73557e+08
-6.26249e+10
-5.28293e+08
-6.25485e+10
-4.69415e+08
-6.24981e+10
-4.0306e+08
-6.24801e+10
-3.27991e+08
-6.24937e+10
-2.51968e+08
-6.25383e+10
-1.74865e+08
-6.26201e+10
-9.52339e+07
-6.27412e+10
-1.70223e+07
-6.29066e+10
6.22814e+07
-6.31167e+10
1.43312e+08
-6.33747e+10
2.25751e+08
-6.36864e+10
3.08599e+08
-6.40675e+10
3.96883e+08
-6.45249e+10
4.84707e+08
-6.50724e+10
5.75128e+08
-6.57127e+10
6.62707e+08
-6.64387e+10
7.49349e+08
-6.72357e+10
8.35805e+08
-6.81093e+10
9.08223e+08
-6.90777e+10
9.13209e+08
-7.01712e+10
8.38275e+08
-7.12358e+10
8.58643e+08
-7.29237e+10
1.44732e+09
-7.71757e+10
2.71344e+09
-1.0307e+11
1.01884e+10
8.66576e+09
-6.43482e+10
-1.46478e+08
3.78424e+08
-6.43868e+10
-1.55639e+08
4.05824e+08
-6.44202e+10
-1.57902e+08
4.20332e+08
-6.44623e+10
-1.60639e+08
4.43266e+08
-6.45128e+10
-1.64536e+08
4.64026e+08
-6.45721e+10
-1.68024e+08
4.84083e+08
-6.46353e+10
-1.71076e+08
4.99225e+08
-6.47055e+10
-1.74081e+08
5.11644e+08
-6.478e+10
-1.77218e+08
5.19544e+08
-6.48578e+10
-1.80352e+08
5.18254e+08
-6.49347e+10
-1.83629e+08
5.07831e+08
-6.50053e+10
-1.86923e+08
4.83823e+08
-6.5066e+10
-1.90391e+08
4.45244e+08
-6.51121e+10
-1.93995e+08
3.9261e+08
-6.51343e+10
-1.98538e+08
3.19307e+08
-6.51319e+10
-2.03305e+08
2.28524e+08
-6.5106e+10
-2.09738e+08
1.2122e+08
-6.50513e+10
-2.17607e+08
-12896.6
-6.4972e+10
-2.27759e+08
-1.30749e+08
-6.48641e+10
-2.39406e+08
-2.69453e+08
-6.47295e+10
-2.52845e+08
-4.08096e+08
-6.45701e+10
-2.67421e+08
-5.40043e+08
-6.43888e+10
-2.83191e+08
-6.51295e+08
-6.41924e+10
-2.99591e+08
-7.33003e+08
-6.39866e+10
-3.16158e+08
-7.8087e+08
-6.37812e+10
-3.32412e+08
-7.91042e+08
-6.35818e+10
-3.47883e+08
-7.68308e+08
-6.33931e+10
-3.62184e+08
-7.19288e+08
-6.32178e+10
-3.75077e+08
-6.48331e+08
-6.30536e+10
-3.86427e+08
-5.64802e+08
-6.29013e+10
-3.96297e+08
-4.71711e+08
-6.27547e+10
-4.04898e+08
-3.75271e+08
-6.26128e+10
-4.12336e+08
-2.78058e+08
-6.24697e+10
-4.19011e+08
-1.83693e+08
-6.23164e+10
-4.2519e+08
-9.39678e+07
-6.21496e+10
-4.30661e+08
-8.38502e+06
-6.19578e+10
-4.35079e+08
6.77474e+07
-6.17306e+10
-4.38106e+08
1.37171e+08
-6.14591e+10
-4.39655e+08
2.02265e+08
-6.11332e+10
-4.40896e+08
2.60265e+08
-6.07368e+10
-4.44244e+08
3.0988e+08
-6.02526e+10
-4.51966e+08
3.45586e+08
-5.96529e+10
-4.66396e+08
3.64799e+08
-5.89151e+10
-4.89575e+08
3.67655e+08
-5.80138e+10
-5.22296e+08
3.46498e+08
-5.69365e+10
-5.66851e+08
3.02037e+08
-5.56619e+10
-6.45012e+08
2.31595e+08
-5.41485e+10
-8.0027e+08
1.19449e+08
-5.2403e+10
-1.03079e+09
-7.44004e+07
-5.06714e+10
-1.13313e+09
-2.96402e+08
-4.81047e+10
-1.35113e+09
-7.85878e+08
-4.44912e+10
-1.28177e+09
-1.37452e+09
-2.19315e+10
-8.74175e+09
-8.25356e+09
-6.27514e+09
-2.51407e+09
-6.19216e+10
3.76738e+08
-6.19812e+10
3.86924e+08
-6.2042e+10
4.01115e+08
-6.21111e+10
4.12403e+08
-6.21905e+10
4.23609e+08
-6.228e+10
4.33582e+08
-6.2374e+10
4.38582e+08
-6.24753e+10
4.40312e+08
-6.25813e+10
4.37328e+08
-6.2691e+10
4.25074e+08
-6.28004e+10
4.04004e+08
-6.29047e+10
3.69707e+08
-6.30001e+10
3.21172e+08
-6.30836e+10
2.58382e+08
-6.31451e+10
1.75223e+08
-6.31823e+10
7.36399e+07
-6.31923e+10
-4.52938e+07
-6.31702e+10
-1.792e+08
-6.31192e+10
-3.2469e+08
-6.30373e+10
-4.80384e+08
-6.29253e+10
-6.37378e+08
-6.27853e+10
-7.88887e+08
-6.26193e+10
-9.22213e+08
-6.24336e+10
-1.02851e+09
-6.22335e+10
-1.10353e+09
-6.20281e+10
-1.14271e+09
-6.18226e+10
-1.15047e+09
-6.16211e+10
-1.13292e+09
-6.14258e+10
-1.09382e+09
-6.12345e+10
-1.04173e+09
-6.10487e+10
-9.79255e+08
-6.0863e+10
-9.12034e+08
-6.06777e+10
-8.42449e+08
-6.04898e+10
-7.73597e+08
-6.02943e+10
-7.06382e+08
-6.00914e+10
-6.39085e+08
-5.98737e+10
-5.7635e+08
-5.96361e+10
-5.14245e+08
-5.93745e+10
-4.52005e+08
-5.90831e+10
-3.92578e+08
-5.87539e+10
-3.34903e+08
-5.83814e+10
-2.8336e+08
-5.79563e+10
-2.41066e+08
-5.74744e+10
-2.09884e+08
-5.69224e+10
-2.00707e+08
-5.62865e+10
-2.19779e+08
-5.55797e+10
-2.79715e+08
-5.48698e+10
-4.18204e+08
-5.41389e+10
-7.10672e+08
-5.29287e+10
-1.21378e+09
-5.02118e+10
-2.18543e+09
-4.37959e+10
-4.52802e+09
-3.37716e+10
-8.35223e+09
-2.82e+09
-5.97415e+10
3.86592e+08
-3.94529e+07
-5.97061e+10
3.90472e+08
-1.35833e+07
-5.96898e+10
4.02246e+08
8.02218e+06
-5.9678e+10
4.11676e+08
2.58116e+07
-5.96745e+10
4.221e+08
4.40392e+07
-5.96783e+10
4.33038e+08
5.99571e+07
-5.96882e+10
4.44811e+08
6.92328e+07
-5.97047e+10
4.57322e+08
7.5333e+07
-5.97244e+10
4.70648e+08
7.28381e+07
-5.97475e+10
4.84767e+08
6.05324e+07
-5.97731e+10
4.99505e+08
3.71767e+07
-5.97995e+10
5.14748e+08
-1.99894e+06
-5.98263e+10
5.30398e+08
-5.61659e+07
-5.98457e+10
5.46215e+08
-1.31841e+08
-5.98555e+10
5.62127e+08
-2.30133e+08
-5.98518e+10
5.78111e+08
-3.50073e+08
-5.98293e+10
5.93563e+08
-4.93465e+08
-5.97813e+10
6.08644e+08
-6.56128e+08
-5.97014e+10
6.2237e+08
-8.35012e+08
-5.95841e+10
6.34941e+08
-1.0256e+09
-5.9428e+10
6.46327e+08
-1.21876e+09
-5.92335e+10
6.57268e+08
-1.40252e+09
-5.9008e+10
6.66456e+08
-1.55654e+09
-5.87625e+10
6.73576e+08
-1.66499e+09
-5.85148e+10
6.78107e+08
-1.71915e+09
-5.82792e+10
6.80418e+08
-1.71872e+09
-5.80696e+10
6.80639e+08
-1.67029e+09
-5.78946e+10
6.79155e+08
-1.58585e+09
-5.77585e+10
6.7632e+08
-1.47414e+09
-5.76627e+10
6.72399e+08
-1.34766e+09
-5.76059e+10
6.6754e+08
-1.21201e+09
-5.75865e+10
6.61748e+08
-1.07409e+09
-5.7602e+10
6.54907e+08
-9.36963e+08
-5.76519e+10
6.4647e+08
-8.01721e+08
-5.77347e+10
6.35569e+08
-6.70237e+08
-5.78486e+10
6.21528e+08
-5.41254e+08
-5.79986e+10
6.04017e+08
-4.12939e+08
-5.81833e+10
5.82826e+08
-2.88195e+08
-5.8401e+10
5.56353e+08
-1.63087e+08
-5.86473e+10
5.2284e+08
-4.04126e+07
-5.8916e+10
4.811e+08
7.92465e+07
-5.92018e+10
4.2964e+08
1.93548e+08
-5.94887e+10
3.66455e+08
2.92877e+08
-5.97537e+10
2.89454e+08
3.71557e+08
-5.99679e+10
1.97929e+08
4.13975e+08
-6.01014e+10
9.08789e+07
4.12735e+08
-6.01075e+10
-5.03124e+07
3.59073e+08
-5.98502e+10
-2.76911e+08
1.99458e+08
-5.90519e+10
-6.38535e+08
-1.75976e+08
-5.75573e+10
-9.65064e+08
-8.03562e+08
-5.49843e+10
-1.31325e+09
-2.00857e+09
-4.75604e+10
-3.35042e+09
-5.43154e+09
-2.61679e+10
-1.39166e+10
-1.57225e+10
-7.20619e+09
-7.22309e+09
-5.72215e+10
7.98262e+08
-5.72825e+10
8.41982e+08
-5.73484e+10
8.72589e+08
-5.74249e+10
9.03598e+08
-5.75104e+10
9.34111e+08
-5.76054e+10
9.6414e+08
-5.77081e+10
9.8845e+08
-5.78188e+10
1.01039e+09
-5.79338e+10
1.02489e+09
-5.8053e+10
1.03062e+09
-5.81746e+10
1.02623e+09
-5.82963e+10
1.00668e+09
-5.84171e+10
9.72604e+08
-5.85295e+10
9.17295e+08
-5.8631e+10
8.39361e+08
-5.8718e+10
7.38454e+08
-5.87836e+10
6.1277e+08
-5.88213e+10
4.64498e+08
-5.88244e+10
2.96525e+08
-5.87875e+10
1.10736e+08
-5.87031e+10
-8.51599e+07
-5.85657e+10
-2.81205e+08
-5.83794e+10
-4.55469e+08
-5.81568e+10
-5.915e+08
-5.79171e+10
-6.78868e+08
-5.76778e+10
-7.15481e+08
-5.74559e+10
-7.06373e+08
-5.72625e+10
-6.6282e+08
-5.71041e+10
-5.9293e+08
-5.69834e+10
-5.08664e+08
-5.69e+10
-4.1547e+08
-5.68523e+10
-3.20376e+08
-5.68374e+10
-2.27093e+08
-5.68544e+10
-1.37275e+08
-5.69014e+10
-5.37153e+07
-5.69759e+10
2.42503e+07
-5.70808e+10
9.70747e+07
-5.72117e+10
1.61623e+08
-5.73674e+10
2.20229e+08
-5.75487e+10
2.71096e+08
-5.77555e+10
3.13533e+08
-5.79904e+10
3.45514e+08
-5.82507e+10
3.56871e+08
-5.85332e+10
3.42542e+08
-5.88353e+10
2.88433e+08
-5.91586e+10
1.8644e+08
-5.95353e+10
3.05519e+07
-6.00245e+10
-2.36696e+08
-6.06127e+10
-8.25049e+08
-6.07213e+10
-2.14708e+09
-5.97526e+10
-4.61113e+09
-5.89525e+10
-8.88243e+09
-6.3677e+10
-1.78529e+10
-8.1221e+09
-6.0209e+10
4.79744e+08
-5.29552e+08
-6.02014e+10
4.82309e+08
-5.01688e+08
-6.01974e+10
4.92985e+08
-4.87459e+08
-6.02001e+10
5.02143e+08
-4.72396e+08
-6.02094e+10
5.11493e+08
-4.5731e+08
-6.02239e+10
5.20741e+08
-4.45794e+08
-6.02453e+10
5.29939e+08
-4.39074e+08
-6.02724e+10
5.3908e+08
-4.3672e+08
-6.03042e+10
5.48266e+08
-4.44083e+08
-6.03405e+10
5.57559e+08
-4.61764e+08
-6.03771e+10
5.66955e+08
-4.95288e+08
-6.04135e+10
5.76495e+08
-5.45821e+08
-6.04444e+10
5.86487e+08
-6.16868e+08
-6.04652e+10
5.97e+08
-7.14705e+08
-6.04704e+10
6.08307e+08
-8.40038e+08
-6.0453e+10
6.19944e+08
-9.96472e+08
-6.04074e+10
6.32411e+08
-1.18191e+09
-6.03274e+10
6.45381e+08
-1.39586e+09
-6.02071e+10
6.59615e+08
-1.63216e+09
-6.00428e+10
6.74689e+08
-1.88735e+09
-5.98264e+10
6.9094e+08
-2.15289e+09
-5.95557e+10
7.08323e+08
-2.41348e+09
-5.92358e+10
7.281e+08
-2.63918e+09
-5.88831e+10
7.50278e+08
-2.80447e+09
-5.85206e+10
7.74339e+08
-2.89404e+09
-5.81686e+10
7.99842e+08
-2.91074e+09
-5.7844e+10
8.25996e+08
-2.86446e+09
-5.75573e+10
8.51588e+08
-2.77163e+09
-5.73112e+10
8.75854e+08
-2.64846e+09
-5.71084e+10
8.98802e+08
-2.50691e+09
-5.69459e+10
9.20506e+08
-2.35874e+09
-5.68206e+10
9.40475e+08
-2.21027e+09
-5.67305e+10
9.58427e+08
-2.06382e+09
-5.66709e+10
9.7445e+08
-1.92298e+09
-5.66402e+10
9.88466e+08
-1.78662e+09
-5.66351e+10
1.00003e+09
-1.65475e+09
-5.66532e+10
1.00808e+09
-1.5237e+09
-5.6693e+10
1.01136e+09
-1.39382e+09
-5.67496e+10
1.00906e+09
-1.26388e+09
-5.68224e+10
1.0004e+09
-1.13065e+09
-5.69067e+10
9.83814e+08
-9.96992e+08
-5.69974e+10
9.57449e+08
-8.62172e+08
-5.70893e+10
9.18296e+08
-7.32972e+08
-5.71718e+10
8.63046e+08
-6.17633e+08
-5.72491e+10
7.90103e+08
-5.19963e+08
-5.73459e+10
7.02464e+08
-4.38714e+08
-5.75267e+10
6.05458e+08
-3.62639e+08
-5.78619e+10
4.8765e+08
-3.50512e+08
-5.83784e+10
3.06286e+08
-5.4149e+08
-5.86038e+10
-9.69987e+07
-1.31454e+09
-5.79821e+10
-1.07128e+09
-2.69167e+09
-5.63747e+10
-2.87918e+09
-5.18755e+09
-5.18492e+10
-8.1469e+09
-1.28486e+10
-3.53888e+09
-8.09961e+09
-5.96156e+10
1.36079e+09
-5.97425e+10
1.45294e+09
-5.98724e+10
1.49703e+09
-6.00183e+10
1.55303e+09
-6.01784e+10
1.60684e+09
-6.03515e+10
1.65899e+09
-6.05391e+10
1.70672e+09
-6.07396e+10
1.75059e+09
-6.09516e+10
1.78537e+09
-6.11742e+10
1.81057e+09
-6.14025e+10
1.8204e+09
-6.16352e+10
1.81374e+09
-6.18657e+10
1.78639e+09
-6.20871e+10
1.73182e+09
-6.22924e+10
1.64837e+09
-6.24718e+10
1.5323e+09
-6.26183e+10
1.38452e+09
-6.2723e+10
1.20549e+09
-6.27798e+10
1.0011e+09
-6.27844e+10
7.75044e+08
-6.2733e+10
5.35949e+08
-6.26277e+10
3.00727e+08
-6.2477e+10
9.91104e+07
-6.22979e+10
-4.41372e+07
-6.21145e+10
-1.12625e+08
-6.19462e+10
-1.10294e+08
-6.18077e+10
-4.74428e+07
-6.17101e+10
5.99156e+07
-6.16561e+10
1.94713e+08
-6.16475e+10
3.43884e+08
-6.16798e+10
4.95919e+08
-6.17502e+10
6.44778e+08
-6.18575e+10
7.87865e+08
-6.19971e+10
9.20462e+08
-6.21679e+10
1.0429e+09
-6.23671e+10
1.15394e+09
-6.25962e+10
1.25704e+09
-6.28606e+10
1.35218e+09
-6.31653e+10
1.44031e+09
-6.35192e+10
1.52349e+09
-6.39303e+10
1.59892e+09
-6.44109e+10
1.66759e+09
-6.49803e+10
1.72368e+09
-6.56622e+10
1.76206e+09
-6.65006e+10
1.78463e+09
-6.75571e+10
1.79698e+09
-6.89264e+10
1.82141e+09
-7.07386e+10
1.80601e+09
-7.32268e+10
1.6011e+09
-7.70376e+10
1.01944e+09
-8.37243e+10
3.14829e+08
-9.4367e+10
-1.80684e+09
-1.16465e+11
-4.36868e+09
-2.00604e+10
-5.9158e+10
-1.01051e+07
-5.7429e+08
-5.91054e+10
-2.24314e+07
-5.2532e+08
-5.90619e+10
-2.43067e+07
-5.00162e+08
-5.90285e+10
-2.54978e+07
-4.73991e+08
-5.90048e+10
-2.67855e+07
-4.4795e+08
-5.89889e+10
-2.80172e+07
-4.27604e+08
-5.89825e+10
-2.95015e+07
-4.1013e+08
-5.89849e+10
-3.1032e+07
-3.97904e+08
-5.89968e+10
-3.26447e+07
-3.94836e+08
-5.90138e+10
-3.44841e+07
-4.06435e+08
-5.90395e+10
-3.68163e+07
-4.3043e+08
-5.90692e+10
-3.98179e+07
-4.75944e+08
-5.90985e+10
-4.34963e+07
-5.45883e+08
-5.91234e+10
-4.78745e+07
-6.45097e+08
-5.91363e+10
-5.29375e+07
-7.78367e+08
-5.91294e+10
-5.86764e+07
-9.49593e+08
-5.90926e+10
-6.48278e+07
-1.15973e+09
-5.90207e+10
-7.11856e+07
-1.40475e+09
-5.8906e+10
-7.68606e+07
-1.68101e+09
-5.87421e+10
-8.16104e+07
-1.98454e+09
-5.85163e+10
-8.49132e+07
-2.31209e+09
-5.82228e+10
-8.65187e+07
-2.64216e+09
-5.7865e+10
-8.51843e+07
-2.93381e+09
-5.74728e+10
-8.10252e+07
-3.13926e+09
-5.70807e+10
-7.34856e+07
-3.23646e+09
-5.67244e+10
-6.38806e+07
-3.2294e+09
-5.64248e+10
-5.19497e+07
-3.14126e+09
-5.61932e+10
-3.7155e+07
-2.999e+09
-5.60343e+10
-2.02382e+07
-2.82431e+09
-5.59437e+10
-3.02998e+06
-2.63635e+09
-5.59197e+10
1.37205e+07
-2.44356e+09
-5.59584e+10
3.05028e+07
-2.25503e+09
-5.60581e+10
4.73009e+07
-2.07091e+09
-5.62203e+10
6.3634e+07
-1.89131e+09
-5.6447e+10
7.89314e+07
-1.71393e+09
-5.67429e+10
9.26649e+07
-1.53546e+09
-5.71124e+10
1.04221e+08
-1.35191e+09
-5.75637e+10
1.12756e+08
-1.15887e+09
-5.81085e+10
1.17499e+08
-9.50493e+08
-5.87531e+10
1.17567e+08
-7.27402e+08
-5.9514e+10
1.11684e+08
-4.80331e+08
-6.04056e+10
9.85232e+07
-2.07766e+08
-6.14474e+10
7.59281e+07
9.15336e+07
-6.26623e+10
4.02447e+07
4.16335e+08
-6.40781e+10
-1.09681e+07
7.6677e+08
-6.57381e+10
-7.24616e+07
1.14495e+09
-6.77498e+10
-1.23553e+08
1.58688e+09
-7.0328e+10
-1.53351e+08
2.10077e+09
-7.37767e+10
-2.41743e+08
2.69193e+09
-7.88578e+10
-4.78329e+08
3.54441e+09
-8.70646e+10
-8.46472e+08
5.54316e+09
-1.00129e+11
-1.22519e+09
8.25337e+09
-1.23664e+11
-2.92049e+09
1.31953e+10
-4.00009e+10
-1.11734e+10
-5.64362e+10
1.34289e+09
-5.64552e+10
1.45522e+09
-5.64904e+10
1.51377e+09
-5.65365e+10
1.57948e+09
-5.65942e+10
1.64357e+09
-5.66604e+10
1.70275e+09
-5.67365e+10
1.75879e+09
-5.68216e+10
1.80967e+09
-5.69159e+10
1.8515e+09
-5.7015e+10
1.87883e+09
-5.71225e+10
1.89353e+09
-5.7234e+10
1.8865e+09
-5.73458e+10
1.85442e+09
-5.7455e+10
1.79199e+09
-5.75553e+10
1.69407e+09
-5.76405e+10
1.55691e+09
-5.77027e+10
1.37925e+09
-5.77383e+10
1.16612e+09
-5.77411e+10
9.21246e+08
-5.77057e+10
6.49894e+08
-5.76194e+10
3.54125e+08
-5.74732e+10
5.6092e+07
-5.7266e+10
-2.05905e+08
-5.70202e+10
-3.83109e+08
-5.67664e+10
-4.52843e+08
-5.65358e+10
-4.18788e+08
-5.63456e+10
-3.05531e+08
-5.61996e+10
-1.41369e+08
-5.60949e+10
4.92603e+07
-5.60236e+10
2.46458e+08
-5.59829e+10
4.4296e+08
-5.59654e+10
6.28469e+08
-5.59631e+10
8.00121e+08
-5.59712e+10
9.55407e+08
-5.5985e+10
1.09466e+09
-5.60028e+10
1.21892e+09
-5.60216e+10
1.32999e+09
-5.60412e+10
1.4298e+09
-5.60634e+10
1.52095e+09
-5.60845e+10
1.59945e+09
-5.61096e+10
1.67099e+09
-5.61403e+10
1.73216e+09
-5.61816e+10
1.77928e+09
-5.62435e+10
1.80807e+09
-5.634e+10
1.8192e+09
-5.64812e+10
1.81268e+09
-5.66633e+10
1.80385e+09
-5.69262e+10
1.78425e+09
-5.7658e+10
1.84747e+09
-5.9749e+10
2.26252e+09
-6.4086e+10
3.39747e+09
-7.1882e+10
4.55726e+09
-9.75317e+10
1.83855e+10
5.25779e+09
-5.96667e+10
-2.3096e+08
-4.07717e+08
-5.96044e+10
-2.47687e+08
-3.26416e+08
-5.95536e+10
-2.55374e+08
-2.81548e+08
-5.95139e+10
-2.6298e+08
-2.36482e+08
-5.94855e+10
-2.70589e+08
-1.91528e+08
-5.94689e+10
-2.78326e+08
-1.51787e+08
-5.94659e+10
-2.86443e+08
-1.13017e+08
-5.94739e+10
-2.94959e+08
-8.20147e+07
-5.9495e+10
-3.03884e+08
-5.79334e+07
-5.95313e+10
-3.13278e+08
-4.62887e+07
-5.95793e+10
-3.23373e+08
-5.02978e+07
-5.96387e+10
-3.34286e+08
-7.54777e+07
-5.97055e+10
-3.46052e+08
-1.2823e+08
-5.97716e+10
-3.58696e+08
-2.16596e+08
-5.98272e+10
-3.72135e+08
-3.46846e+08
-5.98584e+10
-3.85992e+08
-5.27449e+08
-5.98525e+10
-4.00159e+08
-7.59864e+08
-5.97938e+10
-4.1368e+08
-1.04342e+09
-5.96716e+10
-4.25833e+08
-1.37275e+09
-5.94738e+10
-4.35493e+08
-1.74389e+09
-5.91812e+10
-4.42805e+08
-2.16151e+09
-5.87676e+10
-4.46808e+08
-2.60815e+09
-5.82328e+10
-4.47008e+08
-3.02013e+09
-5.76178e+10
-4.41913e+08
-3.30829e+09
-5.69948e+10
-4.32016e+08
-3.42228e+09
-5.64236e+10
-4.18535e+08
-3.37688e+09
-5.59396e+10
-4.03596e+08
-3.21767e+09
-5.55561e+10
-3.88748e+08
-2.99154e+09
-5.52699e+10
-3.74056e+08
-2.73602e+09
-5.50704e+10
-3.5881e+08
-2.47837e+09
-5.49431e+10
-3.4201e+08
-2.23168e+09
-5.48768e+10
-3.22954e+08
-2.00288e+09
-5.48599e+10
-3.01721e+08
-1.79192e+09
-5.48833e+10
-2.78115e+08
-1.5969e+09
-5.49389e+10
-2.51715e+08
-1.41451e+09
-5.5022e+10
-2.22057e+08
-1.23851e+09
-5.51256e+10
-1.88321e+08
-1.06763e+09
-5.52468e+10
-1.49409e+08
-8.94392e+08
-5.53785e+10
-1.03942e+08
-7.17788e+08
-5.55181e+10
-5.04836e+07
-5.3505e+08
-5.56544e+10
1.28193e+07
-3.458e+08
-5.5778e+10
8.82071e+07
-1.47795e+08
-5.58811e+10
1.78525e+08
6.07677e+07
-5.59518e+10
2.87434e+08
2.71949e+08
-5.59781e+10
4.18616e+08
4.79451e+08
-5.59378e+10
5.78571e+08
6.61123e+08
-5.5776e+10
7.80347e+08
7.94067e+08
-5.53929e+10
1.0187e+09
8.37114e+08
-5.47474e+10
1.28122e+09
8.70173e+08
-5.40614e+10
1.61163e+09
1.33787e+09
-5.32264e+10
1.90482e+09
2.93151e+09
-5.25704e+10
2.1638e+09
5.79319e+09
-6.4837e+10
7.89887e+09
1.78501e+10
2.85358e+09
7.9596e+09
-5.82002e+10
1.09247e+09
-5.81989e+10
1.21527e+09
-5.82104e+10
1.2791e+09
-5.82377e+10
1.35313e+09
-5.82797e+10
1.42418e+09
-5.83369e+10
1.49072e+09
-5.84112e+10
1.55532e+09
-5.85002e+10
1.61179e+09
-5.86056e+10
1.66043e+09
-5.87287e+10
1.69507e+09
-5.88655e+10
1.71215e+09
-5.9015e+10
1.70568e+09
-5.91723e+10
1.66865e+09
-5.93292e+10
1.59279e+09
-5.94763e+10
1.47206e+09
-5.95998e+10
1.29816e+09
-5.96865e+10
1.0704e+09
-5.97211e+10
7.91563e+08
-5.96926e+10
4.70459e+08
-5.95894e+10
1.12672e+08
-5.93893e+10
-2.88512e+08
-5.9064e+10
-7.16116e+08
-5.86093e+10
-1.10619e+09
-5.8063e+10
-1.36879e+09
-5.74922e+10
-1.45199e+09
-5.69555e+10
-1.3698e+09
-5.64923e+10
-1.16881e+09
-5.6123e+10
-8.97054e+08
-5.58522e+10
-5.94562e+08
-5.5673e+10
-2.91675e+08
-5.55704e+10
-2.91294e+06
-5.55303e+10
2.63182e+08
-5.55361e+10
5.01321e+08
-5.55769e+10
7.1468e+08
-5.56448e+10
9.07285e+08
-5.57341e+10
1.08301e+09
-5.58373e+10
1.24278e+09
-5.59512e+10
1.39409e+09
-5.60683e+10
1.53681e+09
-5.6185e+10
1.67294e+09
-5.62884e+10
1.80148e+09
-5.63667e+10
1.92335e+09
-5.64081e+10
2.03861e+09
-5.63978e+10
2.14385e+09
-5.63253e+10
2.24586e+09
-5.61701e+10
2.33503e+09
-5.58589e+10
2.37972e+09
-5.53125e+10
2.3513e+09
-5.44346e+10
2.33298e+09
-5.2879e+10
2.40207e+09
-5.01562e+10
2.72668e+09
-4.66358e+10
3.44359e+09
-3.61922e+10
1.60186e+10
8.05216e+09
-6.21398e+10
-2.38835e+08
-1.94348e+08
-6.20991e+10
-2.62823e+08
-9.27636e+07
-6.20657e+10
-2.78858e+08
-2.452e+07
-6.20423e+10
-2.9112e+08
4.28455e+07
-6.2029e+10
-3.05041e+08
1.11632e+08
-6.20286e+10
-3.18175e+08
1.7711e+08
-6.20429e+10
-3.31595e+08
2.43545e+08
-6.20753e+10
-3.44731e+08
3.04937e+08
-6.21259e+10
-3.57641e+08
3.59358e+08
-6.21977e+10
-3.70331e+08
4.039e+08
-6.22911e+10
-3.82706e+08
4.32855e+08
-6.24019e+10
-3.94606e+08
4.35758e+08
-6.25261e+10
-4.06007e+08
4.0709e+08
-6.26569e+10
-4.16721e+08
3.36261e+08
-6.27808e+10
-4.26606e+08
2.10009e+08
-6.28837e+10
-4.35894e+08
2.00374e+07
-6.29464e+10
-4.45217e+08
-2.41045e+08
-6.2954e+10
-4.55061e+08
-5.6956e+08
-6.28945e+10
-4.65735e+08
-9.5708e+08
-6.27519e+10
-4.78318e+08
-1.4026e+09
-6.24981e+10
-4.93286e+08
-1.91923e+09
-6.2084e+10
-5.09149e+08
-2.51019e+09
-6.14777e+10
-5.24404e+08
-3.09736e+09
-6.07258e+10
-5.34968e+08
-3.5152e+09
-5.99449e+10
-5.37322e+08
-3.65278e+09
-5.92262e+10
-5.27512e+08
-3.55217e+09
-5.86097e+10
-5.0519e+08
-3.31303e+09
-5.81066e+10
-4.72576e+08
-3.00719e+09
-5.77063e+10
-4.32927e+08
-2.68964e+09
-5.73914e+10
-3.89054e+08
-2.3913e+09
-5.71404e+10
-3.43428e+08
-2.1265e+09
-5.69355e+10
-2.97638e+08
-1.89669e+09
-5.67598e+10
-2.51526e+08
-1.70114e+09
-5.66003e+10
-2.03118e+08
-1.53582e+09
-5.64498e+10
-1.51781e+08
-1.39209e+09
-5.6297e+10
-9.81717e+07
-1.26706e+09
-5.61366e+10
-4.12948e+07
-1.15427e+09
-5.59589e+10
2.1497e+07
-1.05292e+09
-5.57616e+10
9.21457e+07
-9.5626e+08
-5.55385e+10
1.72074e+08
-8.65974e+08
-5.52839e+10
2.63144e+08
-7.82217e+08
-5.49921e+10
3.6904e+08
-7.04099e+08
-5.46601e+10
4.94327e+08
-6.30069e+08
-5.42834e+10
6.42807e+08
-5.71244e+08
-5.38562e+10
8.1302e+08
-5.36343e+08
-5.33759e+10
1.00633e+09
-5.52557e+08
-5.28626e+10
1.23188e+09
-6.41572e+08
-5.23847e+10
1.49311e+09
-8.01517e+08
-5.18951e+10
1.74171e+09
-1.00642e+09
-5.07315e+10
1.89852e+09
-1.29809e+09
-4.73882e+10
2.03384e+09
-1.85985e+09
-4.10119e+10
2.59537e+09
-2.48837e+09
-3.42885e+10
1.073e+10
9.41881e+08
5.69056e+09
8.86143e+09
-5.78676e+10
8.17449e+08
-5.78352e+10
9.27101e+08
-5.78177e+10
9.89734e+08
-5.7808e+10
1.05927e+09
-5.78093e+10