/*--------------------------------*- C++ -*----------------------------------*\
| =========                 |                                                 |
| \\      /  F ield         | OpenFOAM: The Open Source CFD Toolbox           |
|  \\    /   O peration     | Version:  4.1                                   |
|   \\  /    A nd           | Web:      www.OpenFOAM.org                      |
|    \\/     M anipulation  |                                                 |
\*---------------------------------------------------------------------------*/
FoamFile
{
    version     2.0;
    format      ascii;
    class       volScalarField;
    location    "26";
    object      p;
}
// * * * * * * * * * * * * * * * * * * * * * * * * * * * * * * * * * * * * * //

dimensions      [0 2 -2 0 0 0 0];

internalField   nonuniform List<scalar> 
4432
(
100676
100675
100669
100662
100655
100650
100649
100652
100656
100662
100667
100671
100672
100671
100667
100664
100659
100659
100682
100729
100817
100852
100811
100844
100922
100946
100891
100793
100676
100537
100376
100201
100166
100206
100269
100155
99835
99837.2
99855.3
99851.4
99862.8
99828.2
99926.2
100060
100211
100771
100546
100001
100064
100842
101780
100338
91766.6
87404.9
100676
100674
100668
100661
100654
100650
100649
100652
100656
100662
100667
100671
100672
100671
100668
100665
100660
100659
100679
100722
100792
100874
100877
100856
100871
100923
100904
100766
100633
100533
100422
100251
100207
100119
100041
100017
100013
99943.6
99830.7
99776.2
99771.5
99839.2
99976.8
100044
99945.5
100501
100596
100100
100266
100867
101997
101034
91630.7
86464.3
100674
100672
100665
100657
100650
100645
100644
100646
100651
100658
100665
100672
100677
100681
100683
100684
100687
100686
100719
100790
100838
100860
100872
100892
100896
100872
100824
100754
100655
100518
100336
100101
99897.6
99830.7
99824.4
99821.7
99892.3
99910.1
99869.5
99843.2
99778.9
99754.4
99824.3
99976.3
100121
100318
100348
99957.9
99910.4
100232
101503
100184
88873.8
95164
100674
100671
100665
100657
100650
100645
100644
100647
100652
100658
100665
100672
100677
100681
100683
100686
100687
100686
100721
100792
100841
100860
100865
100878
100889
100876
100836
100764
100661
100538
100355
100118
99917
99857.8
99904.4
99917.2
99934.7
99903.8
99857
99775.6
99697.8
99688.6
99758.1
99960.5
100113
100347
100467
100244
100462
100947
101798
100816
89162.2
95459.4
100672
100671
100665
100657
100650
100645
100644
100646
100651
100658
100666
100674
100682
100689
100696
100697
100696
100662
100705
100791
100837
100857
100871
100886
100899
100904
100887
100817
100687
100501
100239
99960.1
99785.1
99772.1
99798.2
99863.1
99995.4
100098
100125
100059
99856.4
99780.9
99864.9
99966.1
100072
100035
100049
99875
99891.8
99535.7
98585.3
96743.4
93790.2
98990.5
100672
100670
100664
100656
100649
100645
100644
100646
100652
100658
100666
100674
100682
100689
100696
100699
100699
100663
100699
100791
100836
100856
100874
100892
100906
100912
100891
100817
100685
100502
100234
99932.1
99733.9
99728.5
99842.4
99958.3
100069
100142
100135
100003
99808.7
99691.4
99725
99872.8
99996.1
100049
100047
100005
100111
100076
99412.8
98265.1
94209.8
98886.1
100670
100668
100662
100654
100647
100642
100641
100643
100649
100656
100664
100674
100683
100692
100699
100700
100694
100665
100702
100802
100847
100859
100872
100891
100920
100950
100952
100876
100720
100512
100250
100020
99898.3
99818.5
99767.1
99902.8
100031
100145
100201
100084
99774.2
99674.8
99730.8
99802.5
99878.7
99923.6
100125
100077
100212
100545
100414
98840.9
95338.7
95631.9
100669
100667
100661
100654
100647
100642
100641
100644
100649
100656
100665
100674
100683
100692
100699
100701
100693
100663
100699
100804
100849
100862
100876
100899
100930
100964
100961
100878
100723
100499
100221
99985.1
99845.8
99806.5
99862.6
100034
100166
100256
100277
100091
99761.2
99670
99685.9
99708.9
99787.3
99847.4
99886.1
99977.8
100075
100719
100935
99850.9
95006.7
95164.4
100667
100665
100659
100651
100644
100640
100639
100641
100647
100654
100663
100673
100682
100691
100698
100700
100699
100694
100703
100800
100857
100871
100876
100889
100922
100969
101006
100975
100846
100638
100404
100245
100177
100148
100268
100298
100170
100156
100138
100005
99793.9
99706.1
99623
99658
99852.1
100155
100247
100167
100213
100568
101153
99731.3
96127.5
99278.3
100666
100664
100658
100651
100644
100640
100639
100642
100647
100655
100664
100673
100682
100691
100698
100700
100698
100688
100711
100797
100858
100876
100878
100890
100930
100984
101015
100970
100844
100637
100407
100252
100189
100141
100223
100243
100234
100259
100240
100059
99767.9
99750.3
99674.6
99657.3
99738.5
99864.4
99970.9
100086
100259
100781
101485
100738
95962.9
98368.8
100663
100661
100655
100648
100641
100637
100636
100638
100644
100652
100660
100670
100679
100687
100695
100700
100704
100711
100728
100787
100844
100876
100874
100870
100902
100958
101004
101019
100967
100840
100667
100532
100501
100730
101103
100335
100176
100143
100109
99965.2
99807.2
99647.1
99684
99677.1
99787
100181
100293
100303
100279
100425
100718
99327.1
96477.2
98844
100662
100660
100655
100647
100641
100637
100636
100639
100645
100652
100661
100670
100679
100688
100695
100700
100705
100713
100732
100782
100844
100875
100871
100873
100907
100959
101000
101003
100956
100847
100681
100530
100473
100527
100509
100335
100227
100200
100164
100026
99839.1
99783.6
99709.1
99728.4
99866.8
100048
100166
100266
100382
100645
100974
99621.8
96614
99664.3
100659
100657
100651
100644
100637
100633
100633
100635
100641
100648
100657
100666
100675
100684
100693
100701
100710
100724
100748
100784
100832
100873
100869
100842
100854
100913
100966
101000
101020
100972
100839
100702
100686
100964
100606
100860
100173
100108
100138
100110
99971.6
99919.7
99905.6
99838.4
99839.8
100063
100242
100388
100419
100424
100540
99610.4
97225.4
98339.2
100658
100656
100651
100644
100637
100633
100633
100636
100641
100649
100657
100666
100676
100684
100693
100701
100711
100725
100745
100782
100834
100877
100866
100841
100862
100913
100955
100983
101004
100980
100856
100692
100594
100631
100480
100250
100092
100129
100157
100104
100011
99972.4
99918.7
99871.1
99969.2
100181
100301
100407
100498
100535
100534
99372.9
97170.5
98245.5
100654
100653
100647
100640
100633
100629
100629
100632
100637
100644
100653
100661
100671
100680
100690
100701
100713
100729
100749
100775
100812
100857
100874
100833
100785
100841
100906
100944
100956
100921
100840
100688
100555
100530
100310
100095
100092
100181
100261
100312
100234
100156
100087
99936.6
99826.5
99952
100188
100436
100535
100492
100629
99975.2
97576.4
99108.6
100654
100652
100646
100639
100633
100630
100629
100632
100638
100645
100653
100662
100671
100681
100691
100702
100714
100729
100747
100773
100811
100853
100864
100833
100813
100849
100900
100921
100944
100940
100849
100693
100547
100442
100283
100120
100092
100180
100259
100269
100207
100134
100014
99877.6
99939.4
100155
100330
100466
100513
100577
100763
99920.4
97365.2
99012.9
100649
100648
100642
100635
100629
100625
100625
100628
100633
100640
100648
100657
100666
100676
100688
100700
100714
100729
100746
100767
100792
100822
100843
100817
100754
100778
100847
100863
100857
100814
100728
100605
100494
100390
100235
100142
100155
100280
100420
100502
100474
100328
100143
99942.8
99775.2
99800.9
100015
100292
100412
100343
100273
99554.5
97528.9
99438.2
100649
100647
100642
100635
100629
100626
100625
100628
100633
100641
100649
100657
100667
100677
100688
100701
100714
100729
100746
100765
100789
100816
100837
100828
100783
100791
100829
100827
100832
100819
100746
100627
100498
100383
100254
100160
100189
100282
100385
100442
100414
100287
100063
99860.3
99849.7
99986
100195
100356
100463
100555
100569
99586.9
97210
99081.6
100644
100642
100637
100631
100625
100621
100621
100623
100628
100635
100643
100651
100661
100672
100684
100697
100712
100726
100741
100755
100770
100782
100791
100779
100724
100707
100730
100749
100759
100737
100672
100581
100486
100397
100309
100257
100305
100412
100537
100636
100656
100500
100194
99884.3
99659.4
99591.3
99696.5
99934.6
100055
99913.5
99690.4
99170.1
98445.7
99860.2
100643
100642
100637
100630
100625
100621
100621
100624
100629
100636
100643
100652
100661
100672
100685
100698
100712
100726
100740
100754
100768
100780
100787
100777
100738
100713
100732
100746
100744
100720
100667
100584
100488
100408
100340
100288
100325
100411
100511
100574
100560
100417
100126
99827.6
99717.5
99780.9
99923.1
100160
100365
100352
100112
99329.2
97786.9
98871.3
100638
100637
100632
100625
100620
100616
100616
100618
100623
100629
100637
100645
100655
100665
100678
100692
100706
100720
100732
100741
100748
100746
100743
100724
100664
100615
100624
100666
100689
100673
100627
100566
100495
100437
100395
100372
100414
100516
100621
100685
100686
100588
100325
99967
99587.1
99415.7
99477.6
99672.6
99719.9
99526.9
99350.4
99079.3
98684.2
97236.4
100638
100636
100631
100625
100620
100616
100616
100619
100624
100630
100637
100646
100655
100666
100679
100692
100706
100719
100731
100740
100747
100748
100741
100715
100664
100621
100634
100674
100686
100663
100619
100560
100496
100446
100417
100398
100440
100524
100606
100647
100618
100490
100235
99862.7
99580.3
99526.2
99651.9
99871.1
100048
100049
99887.1
99540.8
98283.3
96657.6
100633
100631
100626
100620
100615
100611
100611
100613
100617
100623
100630
100638
100647
100658
100670
100684
100698
100710
100721
100728
100730
100725
100705
100656
100560
100495
100533
100608
100646
100636
100599
100555
100512
100479
100461
100459
100495
100565
100637
100672
100650
100560
100419
100191
99804
99508
99457.6
99598.2
99646.3
99469.3
99265.7
99148.4
98896.2
97567.6
100632
100631
100626
100620
100615
100611
100611
100613
100618
100624
100631
100638
100647
100658
100670
100684
100697
100709
100719
100726
100729
100724
100703
100650
100554
100495
100537
100609
100642
100630
100593
100550
100511
100484
100473
100475
100512
100579
100641
100662
100616
100496
100302
100012
99688.6
99498.3
99508.8
99646.8
99771.6
99772.1
99732.4
99772.3
98987.7
98841.4
100627
100625
100621
100615
100609
100606
100605
100607
100611
100616
100622
100629
100638
100647
100659
100672
100685
100697
100707
100715
100720
100715
100682
100594
100401
100327
100450
100580
100637
100637
100610
100579
100555
100543
100544
100557
100583
100615
100641
100636
100591
100508
100386
100235
99988.4
99724.6
99595.3
99638.2
99714.4
99640.4
99425.5
99046.3
98682.6
97037.3
100626
100625
100620
100614
100609
100606
100606
100608
100611
100617
100623
100630
100638
100648
100659
100672
100684
100696
100706
100714
100718
100712
100680
100577
100383
100322
100456
100584
100637
100634
100607
100575
100553
100543
100548
100563
100590
100623
100648
100637
100577
100470
100312
100109
99870.6
99676.2
99604.5
99649.9
99719.7
99690.5
99524.1
99173.2
98687.6
96800.3
100621
100619
100615
100609
100604
100600
100599
100601
100604
100608
100613
100619
100626
100635
100645
100656
100668
100679
100690
100702
100717
100731
100720
100593
100193
100106
100406
100586
100650
100653
100634
100616
100608
100617
100642
100673
100698
100704
100688
100635
100556
100464
100359
100236
100081
99910.5
99785
99734.3
99714.6
99613.6
99366.8
98862.2
98263.4
96671.3
100620
100619
100614
100609
100604
100600
100600
100601
100604
100609
100614
100620
100627
100635
100645
100656
100667
100678
100688
100700
100714
100728
100716
100579
100152
100124
100430
100599
100657
100654
100635
100616
100608
100619
100645
100682
100709
100712
100700
100640
100550
100447
100328
100186
100023
99871.6
99774.2
99736.7
99711.2
99605.1
99350.3
98824.6
98161.7
96541.3
100614
100613
100609
100603
100598
100594
100593
100594
100596
100600
100603
100608
100613
100620
100627
100636
100645
100653
100662
100675
100700
100762
100848
100816
99670.3
99786.1
100430
100663
100714
100695
100665
100645
100644
100669
100719
100790
100843
100840
100794
100687
100562
100454
100361
100267
100160
100042
99931.9
99836
99733.5
99563.5
99264.1
98753.6
98031.2
96697.3
100614
100612
100608
100603
100598
100594
100593
100594
100597
100600
100604
100608
100613
100620
100628
100636
100644
100652
100660
100672
100694
100750
100830
100715
99126.2
99909.7
100530
100716
100743
100711
100673
100649
100647
100672
100732
100831
100878
100845
100797
100674
100539
100430
100338
100241
100131
100015
99911
99819.6
99714.1
99536.8
99229.3
98715.9
97989.2
96664.8
100608
100607
100602
100597
100592
100588
100586
100587
100588
100590
100592
100595
100598
100602
100607
100612
100617
100620
100621
100624
100628
100645
100765
100991
99802.6
100465
100713
100756
100711
100664
100638
100638
100671
100741
100859
100984
101009
100929
100767
100590
100461
100377
100309
100236
100152
100055
99943.6
99800.2
99587.2
99274.3
98791.1
98122.3
96820.7
100608
100606
100602
100597
100592
100588
100587
100587
100588
100590
100592
100595
100598
100602
100607
100612
100616
100618
100619
100621
100621
100632
100740
100219
99800.7
100544
100759
100785
100728
100671
100639
100635
100665
100730
100906
101058
100990
100837
100708
100537
100412
100337
100277
100209
100128
100034
99922.5
99775.4
99557.6
99239.3
98758
98070.2
96821.8
100602
100601
100596
100591
100586
100582
100579
100579
100579
100579
100580
100581
100581
100583
100584
100585
100584
100580
100571
100555
100524
100463
100323
100118
99823.6
100229
100705
100842
100780
100683
100613
100577
100573
100602
100668
100797
100978
101026
100941
100791
100580
100433
100357
100316
100279
100225
100148
100036
99865.5
99612
99285.4
98815.2
98347.9
96936.4
100602
100600
100596
100591
100585
100582
100580
100579
100579
100580
100580
100581
100582
100583
100584
100584
100583
100578
100569
100552
100520
100455
100308
100059
99746.2
100309
100764
100883
100805
100695
100614
100571
100560
100579
100617
100795
100982
101021
100859
100673
100492
100373
100307
100273
100246
100203
100131
100020
99851
99604.2
99287.7
98841.5
98301.8
96979.7
100596
100594
100590
100585
100579
100575
100572
100570
100569
100568
100567
100566
100564
100562
100559
100556
100549
100537
100519
100491
100450
100394
100332
100269
100241
100366
100618
100707
100661
100586
100528
100494
100484
100503
100574
100678
100786
101048
101016
100663
100476
100374
100311
100286
100278
100260
100214
100113
99920.5
99618
99254
98775.4
98540.9
97031
100595
100594
100590
100584
100579
100575
100572
100571
100570
100569
100567
100566
100564
100562
100559
100555
100548
100536
100518
100490
100448
100393
100330
100265
100233
100370
100612
100694
100647
100571
100512
100477
100464
100464
100488
100614
100752
100640
100355
100048
100281
100329
100290
100252
100243
100236
100199
100103
99922.4
99649.8
99328.9
98892.4
98558.2
97038
100590
100588
100584
100579
100573
100568
100565
100562
100560
100557
100554
100550
100546
100540
100534
100526
100514
100498
100475
100445
100410
100373
100343
100316
100292
100331
100427
100483
100474
100442
100416
100405
100405
100422
100448
100470
101064
99940
98962.9
99735.4
100215
100403
100366
100329
100308
100308
100303
100234
100031
99681.8
99259.1
98754.7
98580.8
96837.9
100589
100588
100584
100578
100573
100568
100565
100562
100560
100557
100554
100550
100546
100541
100534
100526
100514
100497
100474
100444
100409
100373
100342
100313
100287
100330
100425
100476
100463
100425
100396
100385
100394
100362
100415
100513
100850
97460.4
97021.2
97949.5
98998.4
100163
100365
100315
100277
100276
100275
100210
100031
99737.7
99376.9
98902.3
98698
96977.9
100584
100582
100578
100573
100567
100562
100557
100554
100550
100546
100540
100534
100527
100519
100510
100497
100482
100462
100436
100407
100374
100343
100315
100288
100265
100270
100300
100322
100316
100301
100295
100313
100295
100442
100438
99065.7
96384.7
93616.7
94712.8
97331.7
98788.5
100223
100540
100499
100421
100407
100439
100409
100204
99846.9
99406.7
98954.8
98712.1
96723.2
100583
100582
100578
100572
100567
100562
100557
100554
100550
100546
100541
100534
100527
100519
100509
100497
100481
100461
100436
100406
100374
100343
100315
100286
100263
100268
100300
100323
100316
100298
100293
100317
100375
100480
100355
99556.1
95584.6
92775
93996.6
96333.5
97928
99613.2
100490
100514
100445
100392
100395
100354
100185
99894.6
99493.1
99029.4
98795.5
96876.2
100578
100577
100572
100567
100561
100555
100550
100545
100540
100534
100527
100519
100509
100498
100486
100470
100451
100428
100401
100370
100338
100305
100274
100244
100217
100200
100196
100192
100179
100167
100166
100209
100128
100369
99883.7
95712
90524.8
90647.6
93862.7
96974.9
99091.3
100686
100932
100779
100619
100577
100615
100580
100350
100000
99613.4
99300.9
99134.1
99436.3
100578
100576
100572
100566
100561
100555
100550
100545
100540
100534
100527
100519
100509
100498
100486
100470
100451
100428
100400
100370
100338
100305
100273
100243
100215
100199
100196
100194
100182
100169
100172
100251
100364
100462
99987.2
91835
89237.3
90377.7
93742.9
96712.6
98884.7
100548
100973
100825
100674
100601
100573
100508
100322
100038
99649.2
99461.7
99169.2
97347.5
100573
100571
100567
100561
100555
100549
100543
100537
100531
100523
100515
100504
100492
100479
100463
100445
100423
100397
100368
100335
100300
100265
100230
100194
100159
100126
100097
100070
100043
100022
100017
100104
100038
99288
96727
87328.1
87358.3
90924.1
95117.3
98536
100629
101507
101370
101047
100833
100790
100812
100732
100449
99993.4
99431.2
98905.9
99036.8
100470
100572
100571
100567
100561
100555
100549
100543
100537
100531
100523
100515
100504
100492
100479
100463
100445
100423
100397
100367
100335
100300
100265
100229
100193
100158
100125
100097
100071
100043
100014
99979.2
100004
100327
99524.4
89571.7
84092.2
87061.7
90706.4
94966.1
98490.2
100632
101435
101290
101038
100882
100836
100797
100696
100450
100054
99538.8
99370.8
99392.1
100241
100568
100566
100562
100556
100549
100543
100536
100529
100522
100513
100503
100490
100476
100460
100442
100421
100397
100368
100336
100301
100264
100224
100183
100140
100095
100047
99998.3
99949.7
99897.7
99847.7
99819.4
99870.7
99889.5
98320.2
86670.4
83796
88288.2
93092
97556.1
100596
101745
101816
101628
101268
101104
101084
101090
101014
100755
100133
99260.4
98209.1
97581.5
98061.8
100567
100566
100562
100556
100549
100543
100536
100529
100522
100513
100503
100490
100476
100460
100442
100421
100396
100368
100336
100301
100264
100224
100183
100140
100094
100047
99999
99951.1
99897.8
99837.1
99750.8
99695.4
99602.5
95396.3
85692
85298.2
88893.9
93311.1
97689
100661
101710
101778
101525
101227
101125
101119
101114
101034
100773
100099
99136.7
98521.2
98730.5
100352
100563
100561
100557
100551
100544
100537
100530
100522
100514
100504
100492
100478
100462
100444
100423
100400
100373
100342
100308
100270
100228
100184
100138
100086
100030
99969.1
99902.4
99828.2
99741.9
99627.4
99576.8
100449
99486
77066.5
77304.6
85169.1
91211.5
96256.1
100101
101959
102208
101911
101634
101478
101431
101452
101479
101441
101313
100851
100194
99037.8
97085.4
99173.8
100563
100561
100557
100551
100544
100537
100530
100522
100514
100503
100492
100478
100462
100444
100423
100400
100373
100342
100307
100269
100228
100185
100137
100086
100030
99969.2
99903.3
99830.5
99745.7
99634.3
99535.6
99304.7
94938.6
86034
84045.4
87652.7
92127.6
96722.7
100322
101942
102177
101912
101631
101457
101430
101470
101513
101489
101339
100657
99567.4
98608.2
97631.8
97606.8
100559
100557
100553
100547
100539
100532
100524
100516
100506
100495
100482
100466
100449
100429
100406
100381
100352
100319
100282
100241
100196
100147
100094
100035
99968.7
99894.3
99810.3
99712.6
99586.9
99413.3
99160.5
99613.1
100241
83882.8
87392.5
92808.9
97403.9
100737
102391
102603
102249
101871
101670
101711
101740
101796
101831
101757
101753
101621
100950
99148
95932.4
98095.2
100558
100557
100553
100546
100539
100532
100524
100516
100506
100495
100482
100466
100449
100429
100406
100381
100351
100318
100281
100240
100196
100147
100094
100035
99968.8
99895.1
99811.5
99718.1
99594
99438.6
99275.7
99027.4
93765.5
84837.6
89035.6
93775.1
97933.2
101087
102562
102644
102178
101872
101690
101672
101731
101802
101859
101818
101780
101444
100434
98913.1
96452.2
99004.2
100555
100554
100549
100543
100535
100528
100519
100510
100500
100488
100473
100457
100438
100416
100392
100364
100333
100298
100259
100215
100167
100114
100055
99988.7
99913.3
99827.4
99727.8
99610
99460.8
99257.1
99013.9
99028.5
102906
106083
101297
102157
104099
104609
103758
102556
101849
101641
101701
101892
101985
102124
102121
101904
101955
101493
99130.4
95896.7
93229.8
97533.5
100555
100553
100549
100543
100535
100528
100519
100510
100500
100487
100473
100456
100437
100416
100392
100364
100333
100298
100259
100215
100167
100114
100055
99988.9
99913.8
99827.5
99725.8
99613.2
99469.3
99287.9
99061.6
98778.2
99892.3
97825.7
99178
102073
104412
104845
103840
102463
101775
101647
101720
101868
101972
102118
102100
101892
101918
101229
98607.5
95513.4
93424.6
97628.8
100552
100550
100546
100540
100532
100524
100515
100506
100495
100482
100466
100449
100429
100406
100380
100351
100318
100281
100240
100194
100143
100086
100022
99950
99867.1
99770.6
99658.7
99524.5
99359
99136.7
98865.3
98478
98835.1
101501
102007
103839
105553
105400
103738
101870
101208
101377
101790
102088
102232
102508
102637
102490
102464
100960
97262.8
94322.2
91316.1
97364.3
100552
100550
100546
100539
100532
100524
100515
100506
100494
100481
100466
100448
100428
100406
100380
100351
100318
100281
100240
100194
100143
100086
100023
99950.4
99867.3
99768.2
99657.7
99523.5
99351.2
99130.9
98900
98239.6
98172.6
99321.4
101384
104094
105787
105366
103675
101837
101153
101375
101799
102095
102215
102427
102520
102340
102420
100850
97208.6
94142.2
90991.8
96842.4
100550
100548
100544
100537
100529
100521
100512
100502
100490
100477
100461
100442
100421
100398
100371
100341
100307
100268
100225
100177
100124
100064
99997.1
99920.3
99832.1
99729.9
99610.8
99466.3
99288.3
99056.8
98773.1
98394.9
97867.7
98317.2
99463.6
101851
103675
104181
103188
101656
101062
101441
101982
102342
102480
102797
102801
102691
102580
101070
99310.1
96048.2
88284.9
95246.5
100549
100548
100543
100537
100529
100521
100512
100502
100490
100476
100460
100442
100421
100397
100371
100340
100306
100268
100225
100177
100124
100064
99997.4
99920.8
99833
99730.4
99613.8
99467.1
99283.2
99051.4
98765
98316.8
97902.7
98280.1
100072
102167
103073
103409
102796
101671
101097
101424
101964
102349
102470
102680
102769
102676
102677
101129
99724.6
96664.1
88188.4
92803.8
100548
100546
100542
100536
100528
100519
100510
100500
100488
100474
100457
100438
100417
100392
100365
100334
100299
100260
100216
100167
100112
100050
99980.8
99901.5
99810.2
99704.2
99580.3
99431.7
99248
99017.2
98732.8
98380.9
97932.4
97464.1
96936.9
97382.5
97074.9
97344.7
97797.7
99355.8
100611
101584
102125
102535
102747
102973
102937
102864
103089
103512
105917
103691
87916.5
92919.2
100548
100546
100542
100535
100528
100519
100510
100500
100488
100473
100457
100438
100416
100392
100365
100334
100299
100260
100216
100167
100112
100051
99981.3
99902.2
99811.2
99705.7
99582.8
99435.8
99250
99007.3
98740.2
98401.5
97848.1
97490.8
97506.9
97359.3
96984.3
97069.1
97635.7
99241.7
100692
101595
102135
102522
102709
102940
102939
102969
103102
103348
106179
104038
87858.6
92006.2
100546
100545
100540
100534
100526
100518
100509
100498
100486
100472
100455
100436
100414
100389
100361
100330
100294
100255
100210
100161
100105
100043
99972.8
99892.4
99799.8
99692.5
99566.8
99416.3
99231.9
99004.1
98723.3
98373.9
97901.6
97289.9
96628.1
95661
94315.6
93688.6
94468.4
96651.1
98968.7
100790
101857
102331
102665
102883
103054
103168
103148
104583
107683
104595
90793.5
84157.5
100546
100544
100540
100534
100526
100518
100509
100498
100486
100471
100455
100435
100414
100389
100361
100330
100294
100255
100210
100161
100105
100043
99973.4
99893.2
99800.9
99694.1
99568.8
99418.8
99233.5
99004.8
98733.3
98410.5
97976
97358.8
96489.3
95305.2
94249.7
93724.3
94404
96435.1
98844
100964
101845
102301
102633
102887
103006
103123
103367
104604
107685
104903
90786.7
83618.8
99854.7
100746
99494.8
101312
100886
99624.3
99140.8
99700.7
99606.9
99495.1
99594.1
100592
99855.6
100736
100814
99668.5
99614.1
99729
99516.2
99561.4
100631
100073
99853.1
100079
99701.1
99791.5
99650.3
99885.5
99740.1
99768.9
99599.1
100811
100026
99630.1
100034
99307.7
99621.8
99643.6
99723.5
99626.1
99428.8
99905.1
100413
100585
100397
100632
100332
100607
100290
100050
100163
100024
99884.2
99736
99852.5
99736.4
100386
100543
100340
100595
100332
100540
100258
100012
100115
100011
99838
99701.3
99746.3
99671
100934
100842
100916
100889
101079
100890
101078
99336.9
99592.3
99676.3
99681.2
99236.1
100079
99832.7
100133
99670.5
99952.1
99643.1
99983.5
100884
100779
100814
100865
101025
100809
100930
98993.6
99156.6
99509.4
99426.9
98900.1
100204
99940.4
100215
99704.1
100080
99754.1
100114
100802
100760
100863
100524
100364
100517
100376
99098.9
100963
100385
100355
99179.5
99922.5
100104
100075
99769
100094
99911.7
100161
99859.7
100168
100803
100702
100743
100497
100328
100489
100344
99018.7
100510
100211
99075.7
100287
99561.9
99732.2
100157
99857.9
100198
99920.1
100247
100020
100316
99979.1
100113
99933
100178
100067
100179
100061
99743.5
99763.2
99715.8
100013
100082
100003
100093
99864.4
100052
99862.8
100162
100044
100164
100057
99828.1
99800.6
99988.2
100009
100121
100032
100150
100498
100289
99825.1
100247
100556
100592
99714.8
100259
100215
100318
101136
101279
101286
101255
101178
100799
100841
101155
100940
101188
101177
100808
100902
100363
99402.9
99539.4
99349.8
99653
99286.4
99212.6
99212.6
99285.6
99542.2
99594.5
99526.3
99258.6
99294.6
99283.9
99312.2
99459.9
99525.9
99468.9
99364.3
100248
100359
99778.7
100250
100281
100113
99776.4
100162
100137
99258.3
101039
100710
100917
100269
101167
103150
98994.2
100777
101592
100943
100843
101891
100674
100481
99215.6
99518.1
99516.1
99479.8
99410.6
99037.7
98893.5
99172.2
99531.8
99533.7
99300.3
99523
99183.5
99548.2
99308.8
99503.7
99573.4
99543.8
99423.9
98507.4
98531.8
99083.7
100907
100317
100377
98914.8
98633.2
98616.7
98811.5
99829.2
99873.5
99841.7
98873
98834
99807.8
99716
98874.7
99793.3
99894
99780
99794.6
99749.8
99988.8
99869.6
99678.1
99823.2
99698
99626.6
99668.4
99676.6
99737.8
99826
99906.8
99807.7
99819.8
99669.9
99871.8
99721.7
99593.4
99764.1
98474.7
98791.3
99051.2
100778
100476
100369
99223.7
98645.1
98330.6
98962.7
99667.3
99428.7
99034.3
99563.7
98781.4
99401.3
99510.7
99504.1
98757.1
99443.5
99592.4
99584.1
99633.3
99557.7
98411.9
104413
99309.5
99624.9
99532.2
99605.4
99078
99655.5
99701.3
99475.3
99583
99682.6
99119.2
99554
99796.9
99591.4
99036.4
100856
100640
100795
101032
100602
101007
100882
100933
100636
100619
100743
100477
100765
100672
100862
100766
100570
100874
100578
100967
100800
99511.1
99557.2
99643
99517.8
99597.1
99526.7
99474.1
99525.6
99682.4
99573.7
99545.9
99642.6
99498.6
99531.3
100526
100607
100262
101015
100363
100781
100418
99287.5
99433.2
99620.1
99616.1
99460.7
99365.1
99514.7
99564.3
99626.3
99623.2
99594.8
99526.2
99603.2
99613.7
99621.9
100093
99895.9
100055
100064
99886.7
99645.7
99585.2
100122
100078
99864.6
100104
99587.7
99884.3
99656.4
99714.7
99718.2
99672.8
99644.7
99655.2
99720.5
99541.1
99530.7
99617.8
99567.4
99555
99497.2
99596.2
99879.7
100084
99869.7
99993.9
99784.7
100053
99853.8
99709.6
100121
99994.4
99846.3
100045
99787.7
99819.2
99512.7
99524.7
99581.6
99772
99501.9
99559.4
99690.9
99336.8
99604
99862
100004
99619.4
99710.5
99187.4
99546.7
99667.8
99127.3
99253.2
99605.8
99529.6
99071.6
99174.1
99084.3
99098.5
99153.6
99183.8
98778.2
98953.2
99063.2
99411.8
99234.1
99461.6
99018.3
99550.8
99021.1
99314.7
99110.7
99234.2
98952.1
98858.7
99206.7
99121.7
98788.1
98439.3
98764.8
98048.5
98585.1
98753.4
98892.9
98985.9
98150.1
98451.1
99043.8
98424
98973.5
98833.7
98890.8
98986.3
99977.9
99386.4
99703
99122.5
99386.4
99941
99716.4
100387
101048
101011
100459
100414
100989
101011
100356
99942.9
99079.8
99376.3
99743.8
99293.4
99723.1
99983.1
100003
100105
99385.2
97998.9
99216
100005
98421.5
99198.9
99950.7
98449.3
99385.6
98214.5
99130.9
98775.5
101058
99112.9
98698.8
99329.2
99200.1
98954.7
99644.7
99475.3
98712.1
99767.4
99287.4
99538
99557.2
100312
99709.5
100476
100316
99515.9
99672.8
99162
98976.7
98984.6
99194.6
99103.1
98753.4
98848.3
99062.6
99539.9
100456
100355
99742.6
100319
99629.4
99643.3
99599.8
100346
99836.9
100643
99537
100373
99955.3
99602.6
100454
98940
101231
99022.9
98711.5
99041
98603
100014
100636
100480
93279.4
100478
100121
100875
101449
101203
101400
101139
101215
101426
101402
101496
101362
101355
101470
101471
101307
101334
101419
101448
101136
101240
101417
101225
101421
101428
100784
100755
101182
101184
101176
101298
101130
101329
101024
100753
100293
100401
100484
101033
101168
100968
101380
101037
100938
100792
101085
101229
101327
100945
101039
101050
99479.2
99714.8
99220.4
99454.1
99586
99700.1
99177.3
98515.6
99117.7
98306
98455.3
98836.1
98700
99025.6
98550.6
99255.4
99388.3
99323.3
98699
98857.7
99539.1
98990.5
99156.9
99155.7
99474.5
99443.3
99410.5
99275.7
99462
99409.4
99461.7
99688.3
99863.6
99920
99668.4
99665.1
99838.2
99645.6
99876.1
99488.6
99271.1
99420.4
99419.9
99448.3
99431.5
99469.3
99363.4
99351.9
99422.6
99424.2
99329.6
99414.8
99416.7
99433
99423.2
99546.5
99687.1
99553.5
99704.6
99413.8
99357.6
99464.3
99408.1
99413.7
99427.1
99455
99583.6
99786.8
99607.4
99746.4
98845.9
99526.6
99684.9
97941.3
99891.9
98451.3
97301.1
99129.6
99693.4
98867.4
100203
99436.4
100171
100571
100120
100335
100286
98859.9
98619.9
98479.4
98711.6
98243
98968.4
99659.2
99071.4
100098
98668.7
99835.6
99145
98193.7
98340.5
98026.4
98616.9
98549.8
98227.7
98373.2
98154.3
98875
99470.3
99434
99108.1
99595.6
98686.5
99166.6
102454
101318
101406
101386
101253
99867.6
101401
110307
99707.2
100394
99304.7
101065
100662
100914
105744
100884
100297
99970.9
102591
103544
100190
102484
102182
100120
103784
100870
102895
101302
101865
100948
101020