/*--------------------------------*- C++ -*----------------------------------*\
| =========                 |                                                 |
| \\      /  F ield         | OpenFOAM: The Open Source CFD Toolbox           |
|  \\    /   O peration     | Version:  4.1                                   |
|   \\  /    A nd           | Web:      www.OpenFOAM.org                      |
|    \\/     M anipulation  |                                                 |
\*---------------------------------------------------------------------------*/
FoamFile
{
    version     2.0;
    format      ascii;
    class       surfaceScalarField;
    location    "26";
    object      phi;
}
// * * * * * * * * * * * * * * * * * * * * * * * * * * * * * * * * * * * * * //

dimensions      [0 3 -1 0 0 0 0];

internalField   nonuniform List<scalar> 
11516
(
9.98686e+06
2342.15
12201.2
1.00046e+07
5660.77
20331.7
1.00107e+07
6552.24
30329.3
1.00047e+07
6300.64
41002.2
9.98443e+06
6040.05
53035.4
9.94925e+06
5757.96
65595.4
9.89933e+06
5488.17
78202.9
9.83612e+06
5305.52
89987.4
9.76223e+06
5243.78
99911.4
9.68072e+06
5250.57
107125
9.59549e+06
5172.69
110339
9.50956e+06
4752
107923
9.42412e+06
3090.02
100461
9.33274e+06
275.527
86136.9
9.21727e+06
-8949.61
81226.9
9.1127e+06
-11779
41594.7
8.96825e+06
-17759.7
51545.5
8.89519e+06
-16396.5
-13841.3
8.92055e+06
-19235
-100194
8.99376e+06
-5867.06
-100870
9.01063e+06
-11995.6
-3887.95
8.89952e+06
-6786.5
132978
8.74909e+06
-953.08
185881
8.63544e+06
8777.72
182030
8.5864e+06
3963.5
142328
8.65168e+06
-9156.24
25221.8
8.93941e+06
-797.813
-210069
9.51411e+06
10851.8
-552268
1.04666e+07
17471.1
-982573
1.18202e+07
37313.7
-1.44546e+06
1.34144e+07
73330.8
-1.70143e+06
1.4858e+07
95097.7
-1.56337e+06
1.56824e+07
86809.1
-894591
1.568e+07
53364.5
29535.4
1.51213e+07
41237.6
703794
1.44099e+07
-133883
970487
1.34062e+07
-77613.4
1.17957e+06
1.24842e+07
-62123.9
1.05621e+06
1.14894e+07
-13778.1
936049
1.06261e+07
-48256.6
764318
9.91403e+06
-74377.9
639743
8.83747e+06
-14001.5
889597
7.20114e+06
119674
1.30574e+06
5.23299e+06
435264
1.39005e+06
3.80796e+06
751157
1.21419e+06
3.70076e+06
-49127.2
971893
3.55982e+06
-492675
1.96793e+06
2.80903e+06
-229039
2.24069e+06
2.40013e+06
55766.9
2.37444e+06
2.85208e+06
-1.09786e+06
2.46775e+06
-67197.2
1.73728e+06
2.14599e+06
1.33778e+07
-1.76097e+06
-1.20542e+07
2.35024e+07
-2.54053e+06
-6.77596e+06
-1.42877e+06
-1.40693e+07
9.98994e+06
12185.9
1.00052e+07
19982.1
1.00106e+07
29813.2
1.00038e+07
40196.2
9.98313e+06
51819
9.94795e+06
63888.5
9.89855e+06
75929.7
9.83638e+06
87107.2
9.76397e+06
96419.6
9.68423e+06
103192
9.60079e+06
106033
9.51608e+06
103893
9.42933e+06
97169.4
9.3345e+06
86205.3
9.21925e+06
77514.6
9.09372e+06
64582.8
8.93803e+06
67841.6
8.87502e+06
-13838.1
8.92308e+06
-104502
9.01182e+06
-113001
9.03755e+06
-36999.4
8.93765e+06
109690
8.76744e+06
206616
8.63057e+06
195107
8.5672e+06
117329
8.60676e+06
-225.355
8.82743e+06
-201904
9.35097e+06
-517895
1.02489e+07
-912594
1.14749e+07
-1.21992e+06
1.28984e+07
-1.39732e+06
1.43312e+07
-1.35103e+06
1.53392e+07
-894809
1.56005e+07
-162031
1.52468e+07
431452
1.45435e+07
617719
1.38209e+07
674795
1.31875e+07
499646
1.25894e+07
402289
1.19919e+07
321616
1.14698e+07
210920
1.0799e+07
359692
9.98943e+06
788818
9.25685e+06
1.03554e+06
8.96822e+06
1.07116e+06
8.50869e+06
618669
7.7415e+06
677244
7.19352e+06
1.14985e+06
6.94173e+06
986850
7.04348e+06
-352786
5.24436e+06
3.21353e+06
1.47332e+07
-1.0608e+07
2.07524e+07
-8.09748e+06
-1.4059e+07
1.00144e+07
2319.77
6789.59
1.00544e+07
5295.87
16485.6
1.00941e+07
5981.54
23945.6
1.01331e+07
5445.3
32231.7
1.01703e+07
4871.71
42012.8
1.02063e+07
4260.76
51544.8
1.02412e+07
3664.78
61011
1.02756e+07
3156.52
69910.2
1.03091e+07
2832.74
78278.4
1.03426e+07
2676.9
84604.9
1.03756e+07
2683.52
88378.3
1.04072e+07
2719.79
88127.4
1.04367e+07
2307.63
83784.8
1.04568e+07
2080.44
75201.2
1.04645e+07
-2398.95
75922.9
1.04454e+07
-6001.51
52579.7
1.03137e+07
1112.36
145841
1.02153e+07
-70.9225
56870.4
1.01133e+07
-4509.45
-7958.97
9.98169e+06
-4784.32
30328.1
9.83713e+06
691.892
142364
9.69345e+06
925.099
283141
9.5382e+06
-2223.77
353424
9.42612e+06
-327.2
303664
9.44466e+06
1747.73
127022
9.64263e+06
-11946.5
-163382
1.00386e+07
-30981.8
-594109
1.0744e+07
-45905.9
-1.24184e+06
1.18286e+07
-55950.8
-2.04052e+06
1.31028e+07
-44241
-2.70511e+06
1.42595e+07
-20334
-2.87214e+06
1.50195e+07
-5516.89
-2.3447e+06
1.54924e+07
-17660.6
-1.38626e+06
1.60191e+07
-63370.8
-495267
1.66276e+07
-141248
131548
1.69638e+07
-294059
872721
1.71613e+07
-408861
1.29594e+06
1.71047e+07
-424824
1.32131e+06
1.67786e+07
-288791
1.26142e+06
1.65468e+07
-97123.8
813824
1.64369e+07
-49348.1
554899
1.5995e+07
-113355
1.13426e+06
1.50294e+07
-31209.1
1.99319e+06
1.34378e+07
157562
2.49164e+06
1.12194e+07
301294
2.78459e+06
8.88203e+06
170446
2.90819e+06
7.28278e+06
-130587
3.5843e+06
6.02809e+06
-56029.8
3.64533e+06
4.94421e+06
-291712
3.24474e+06
5.80822e+06
-982407
1.9065e+06
1.02156e+06
-2.22891e+06
9.22424e+06
-1.2301e+07
-845011
2.7128e+06
-1.41008e+07
-1.05578e+06
-2.66965e+06
-1.42849e+06
-4.41354e+06
1.00172e+07
6802.94
1.00543e+07
16285.8
1.00928e+07
23572
1.01303e+07
31732.8
1.01661e+07
41367.6
1.02005e+07
50718.4
1.0234e+07
59939
1.02669e+07
68553.3
1.02991e+07
76527.4
1.03313e+07
82530.9
1.03629e+07
85829.4
1.03933e+07
85473.4
1.04205e+07
81210.9
1.044e+07
74243.4
1.04432e+07
71665.7
1.04095e+07
79619.8
1.03143e+07
145326
1.02256e+07
60088.8
1.01112e+07
-1389.6
9.97459e+06
18852.5
9.83054e+06
110299
9.69463e+06
249785
9.55726e+06
346476
9.43941e+06
318716
9.41638e+06
144627
9.53094e+06
-135856
9.83773e+06
-559686
1.04374e+07
-1.19088e+06
1.13523e+07
-1.92041e+06
1.26157e+07
-2.57964e+06
1.39652e+07
-2.81195e+06
1.49689e+07
-2.40498e+06
1.55648e+07
-1.5505e+06
1.60536e+07
-792062
1.65236e+07
-253541
1.67906e+07
-56958.8
1.70585e+07
-165026
1.72994e+07
-383578
1.73132e+07
-162545
1.71951e+07
80745.8
1.73362e+07
-219057
1.70692e+07
255949
1.65743e+07
967428
1.63191e+07
1.21876e+06
1.63332e+07
1.14963e+06
1.59064e+07
1.03165e+06
1.51297e+07
1.33618e+06
1.47026e+07
1.45227e+06
1.4873e+07
294709
1.20479e+07
1.51149e+06
4.3186e+06
8.72394e+06
-7.67717e+06
1.50575e+06
-1.12864e+07
-4.98024e+06
-8.48029e+06
1.00033e+07
2299.1
7915.43
1.00325e+07
5114.23
22089
1.0056e+07
5713.64
32013
1.00735e+07
5083.04
42808.9
1.00837e+07
4384.25
55558.5
1.00867e+07
3633.93
67463.1
1.00832e+07
2889.91
78709.5
1.00734e+07
2251.45
89694.3
1.00597e+07
1828.56
99174.4
1.00425e+07
1645.83
107446
1.00237e+07
1751.49
113110
1.00045e+07
2153.15
115923
9.98594e+06
2678.84
115622
9.96593e+06
2618.16
114357
9.95684e+06
2263.89
109719
9.92636e+06
-3793.19
105598
9.97099e+06
-3476.23
107953
1.0061e+07
-6978.2
-33762.9
1.00826e+07
4522.06
-39012.1
1.00448e+07
1950.94
65958.8
9.95995e+06
1287.54
228329
9.85565e+06
423.604
389293
9.74637e+06
-3803.42
469572
9.65126e+06
-8473.7
411281
9.60428e+06
-14946.8
188611
9.64146e+06
-33667.6
-183943
9.87861e+06
-61533.3
-811611
1.04753e+07
-75752.8
-1.8232e+06
1.13399e+07
-63792.3
-2.91958e+06
1.21242e+07
-9862.54
-3.55697e+06
1.25058e+07
35718.6
-3.35555e+06
1.24702e+07
61113.1
-2.44024e+06
1.22261e+07
117659
-1.35572e+06
1.19131e+07
116611
-485349
1.17127e+07
-14898.6
188387
1.19355e+07
-407050
891349
1.26798e+07
-946672
1.28302e+06
1.34413e+07
-1.06089e+06
1.38722e+06
1.40208e+07
-690602
1.18843e+06
1.45789e+07
-434374
571803
1.4793e+07
-326026
572826
1.47681e+07
-385986
1.36862e+06
1.46089e+07
-395837
2.23684e+06
1.44243e+07
-207841
2.56516e+06
1.40323e+07
-115738
2.87134e+06
1.29908e+07
95051.5
3.37683e+06
1.18611e+07
299789
4.05014e+06
1.07201e+07
92530
4.20019e+06
1.01267e+07
-199340
3.52898e+06
1.02357e+07
-1.56916e+06
3.18095e+06
1.53458e+07
-2.37356e+06
6.46218e+06
1.99211e+07
-3.0642e+06
1.5822e+06
2.05136e+07
-3.44757e+06
599664
-2.81226e+06
-5.7707e+06
1.00063e+07
7877.24
1.00326e+07
21935.6
1.0055e+07
31793.2
1.00713e+07
42525.4
1.00805e+07
55182.7
1.00826e+07
66984.6
1.00784e+07
78110.8
1.00683e+07
88967.7
1.00543e+07
98305.8
1.00371e+07
106482
1.00184e+07
112074
9.99935e+06
114986
9.98039e+06
115151
9.96056e+06
114658
9.94109e+06
111581
9.91975e+06
113887
9.94785e+06
113631
1.00088e+07
-14559.5
1.00559e+07
-45762.9
1.00321e+07
44637.5
9.94988e+06
194088
9.84758e+06
352584
9.73951e+06
452176
9.63232e+06
419484
9.54586e+06
213227
9.50871e+06
-147349
9.65434e+06
-802042
1.01402e+07
-1.81347e+06
1.09309e+07
-2.86028e+06
1.18154e+07
-3.565e+06
1.23899e+07
-3.42519e+06
1.25155e+07
-2.5362e+06
1.24565e+07
-1.48992e+06
1.23629e+07
-736210
1.20735e+07
-172129
1.14009e+07
-50571.9
1.11144e+07
-1.08358e+06
1.15872e+07
-2.14296e+06
1.21011e+07
-1.50766e+06
1.28321e+07
-1.09637e+06
1.36185e+07
-1.41506e+06
1.40392e+07
-731392
1.42373e+07
116549
1.45685e+07
338937
1.4838e+07
388035
1.50613e+07
574926
1.54102e+07
956349
1.54214e+07
1.20834e+06
1.42407e+07
996678
1.27812e+07
1.18622e+06
1.64016e+07
2.93239e+06
2.0539e+07
-5.77282e+06
2.00439e+07
-7.54975e+06
-5.27026e+06
1.00023e+07
2239.72
9754.03
1.00316e+07
4985.09
26954.7
1.00552e+07
5554.93
39469.1
1.00727e+07
4923.34
52929.6
1.00828e+07
4207.68
68733.9
1.00852e+07
3421.17
83348.2
1.00794e+07
2618.68
97960.6
1.00665e+07
1907.2
111873
1.00471e+07
1391.99
124847
1.00225e+07
1151.31
137073
9.99409e+06
1233.73
147829
9.9632e+06
1795.98
157252
9.93321e+06
2705.92
164313
9.90776e+06
4316.01
169377
9.88884e+06
4485.81
167381
9.8737e+06
4446.41
157984
9.88128e+06
-6712.32
109775
9.83771e+06
-4763.47
3974.07
9.82661e+06
4899.13
-38661.3
9.83891e+06
1192.91
50475.1
9.84348e+06
-2022.6
225309
9.82747e+06
-3838.43
408385
9.77396e+06
-6697.27
530221
9.66977e+06
-13389.6
534534
9.52704e+06
-24607.7
360961
9.38191e+06
-51222.7
1007.92
9.38095e+06
-71492
-782224
9.54718e+06
-46182.6
-2.02227e+06
9.66238e+06
-20017.8
-3.12057e+06
9.46317e+06
15472.5
-3.47205e+06
8.84962e+06
36845.8
-2.85023e+06
8.04879e+06
45264.1
-1.74666e+06
7.27509e+06
71753.7
-734358
6.70494e+06
75201
-70603.2
6.47304e+06
-56367.8
402205
6.71765e+06
-462336
987463
7.23831e+06
-1.32863e+06
1.92466e+06
8.25885e+06
-1.74924e+06
1.96488e+06
9.51526e+06
-1.26601e+06
1.20845e+06
1.06735e+07
-800400
330934
1.09052e+07
-302261
654166
1.09012e+07
-304067
1.60962e+06
1.09664e+07
-480624
2.32548e+06
1.14781e+07
-382056
1.82748e+06
1.22895e+07
-232262
1.66162e+06
1.2536e+07
-113660
2.55706e+06
1.22102e+07
125522
3.61439e+06
1.1547e+07
-6780.88
4.31468e+06
1.12021e+07
-302409
3.8106e+06
1.15529e+07
-412451
3.29654e+06
1.53659e+07
-840791
3.79779e+06
1.97984e+07
-2.80851e+06
-318730
2.30742e+07
-1.27818e+06
-1.41383e+06
-694257
-6.04974e+06
1.00051e+07
9753.85
1.00317e+07
26870.9
1.00542e+07
39218.5
1.00706e+07
52583.4
1.00796e+07
68321.7
1.00812e+07
82878.9
1.00747e+07
97439.2
1.00614e+07
111306
1.00419e+07
124237
1.00175e+07
136417
9.98947e+06
147124
9.95929e+06
156465
9.93004e+06
163568
9.90436e+06
168362
9.88332e+06
167113
9.86543e+06
155528
9.8479e+06
119537
9.79722e+06
22793
9.79558e+06
-43111.6
9.813e+06
26650.3
9.82008e+06
183930
9.80566e+06
362336
9.74428e+06
508376
9.62668e+06
527462
9.44849e+06
368635
9.24784e+06
-8518.4
9.2058e+06
-862834
9.35836e+06
-2.06335e+06
9.50056e+06
-3.08798e+06
9.36014e+06
-3.47116e+06
8.84201e+06
-2.91607e+06
8.12249e+06
-1.82247e+06
7.39831e+06
-763926
6.77066e+06
-124667
6.26719e+06
156080
4.43827e+06
1.05455e+06
2.4466e+06
-729120
2.04867e+06
-3.5729e+06
3.36354e+06
-3.83366e+06
6.76745e+06
-5.16994e+06
8.53982e+06
-3.49517e+06
9.13803e+06
-1.78522e+06
9.21236e+06
-889324
9.62696e+06
-967344
1.03044e+07
-1.06582e+06
1.10173e+07
-838590
1.18157e+07
-221558
1.20262e+07
492356
1.0837e+07
1.57033e+06
1.03814e+07
1.52058e+06
1.23857e+07
-178063
9.97693e+06
-6.04341e+06
7.12816e+06
-6.47394e+06
-1.03902e+07
1.00022e+07
2209.22
11615.1
1.00307e+07
4938.85
31810.6
1.00536e+07
5492.56
46818.2
1.00703e+07
4863.8
63032.4
1.00795e+07
4145.46
81927
1.00808e+07
3350.98
99503.3
1.00742e+07
2538.62
117155
1.00605e+07
1817.37
134115
1.004e+07
1291.86
150882
1.00142e+07
1041.84
167245
9.98442e+06
1120.22
182817
9.95255e+06
1663.02
197827
9.92163e+06
2770.48
210529
9.89475e+06
4297.63
220015
9.86782e+06
5649.87
222364
9.82741e+06
3254.53
212252
9.73587e+06
3490.64
196314
9.57426e+06
-1205.94
141631
9.49334e+06
2225.16
30889.7
9.47803e+06
2711.62
58531.4
9.52264e+06
73.3855
181571
9.59181e+06
-3096.91
346285
9.62385e+06
-2213.82
506123
9.55154e+06
-7780.62
629063
9.34811e+06
-23452
603289
9.0133e+06
-44942.8
390976
8.61232e+06
-43359.4
-343826
8.16573e+06
-8279.63
-1.5909e+06
7.54443e+06
8974.2
-2.54367e+06
6.66157e+06
5064.37
-2.6295e+06
5.63463e+06
571.83
-1.85375e+06
4.66545e+06
3730.25
-811034
3.90049e+06
14060.5
-12770.8
3.44135e+06
46777.2
320125
3.38785e+06
154937
294790
3.66809e+06
-298974
913988
4.07869e+06
-1.40545e+06
2.65625e+06
5.57722e+06
-1.21311e+06
1.62081e+06
7.16214e+06
-1.00406e+06
824258
8.12777e+06
-695714
109753
8.30552e+06
-195315
665648
8.19511e+06
-262281
1.74956e+06
7.44626e+06
-437292
2.69559e+06
7.46283e+06
-458958
1.21137e+06
8.72012e+06
-549139
-65754
9.66438e+06
-477695
1.21838e+06
9.5146e+06
-87438.9
3.04628e+06
9.29802e+06
-133200
4.02257e+06
9.50244e+06
255373
3.16569e+06
1.07952e+07
-536106
2.54288e+06
1.23e+07
121670
1.79491e+06
1.53527e+07
-1.15023e+06
-2.69882e+06
1.59188e+07
-992952
-2.07557e+06
-1.30067e+06
-3.309e+06
1.0005e+07
11518.6
1.00308e+07
31556.7
1.00526e+07
46479.7
1.00681e+07
62621.8
1.00762e+07
81439.2
1.00767e+07
98960.4
1.00695e+07
116579
1.00554e+07
133520
1.00348e+07
150279
1.00092e+07
166621
9.97978e+06
182142
9.9487e+06
196940
9.91884e+06
209207
9.89192e+06
218076
9.86368e+06
218746
9.81947e+06
210587
9.74217e+06
191628
9.60561e+06
141745
9.46794e+06
87919.8
9.41743e+06
78324.3
9.45674e+06
147038
9.52845e+06
292086
9.56817e+06
475472
9.49769e+06
601524
9.26126e+06
593911
8.89683e+06
319021
8.51909e+06
-529844
8.10091e+06
-1.66334e+06
7.53012e+06
-2.52406e+06
6.70099e+06
-2.65516e+06
5.71279e+06
-1.94556e+06
4.77056e+06
-894257
4.04891e+06
-43527.8
3.65927e+06
310907
3.40089e+06
512529
1.66555e+06
2.2912e+06
-37291.1
-523824
126406
-4.79462e+06
1.8044e+06
-6.34005e+06
4.38503e+06
-8.43326e+06
6.18671e+06
-5.59061e+06
6.44654e+06
-2.7542e+06
5.83767e+06
-1.51456e+06
6.06842e+06
-2.52436e+06
6.87973e+06
-3.28742e+06
7.55236e+06
-2.71744e+06
8.23378e+06
-1.57186e+06
8.51229e+06
-309635
8.8411e+06
1.31928e+06
7.30759e+06
2.12429e+06
5.64462e+06
1.42578e+06
-1.45458e+06
-994947
-9.05412e+06
-621650
-2.80018e+06
1.00022e+07
2101.55
12941.3
1.00296e+07
4723.67
36268.9
1.00514e+07
5212.7
53825.7
1.00672e+07
4570.52
72721.9
1.00757e+07
3839.77
94431.9
1.00762e+07
3034.14
115101
1.00691e+07
2213.52
135686
1.00545e+07
1479.38
155921
1.00334e+07
930.444
176275
1.00072e+07
623.971
196365
9.97671e+06
607.834
216385
9.94394e+06
893.866
235456
9.90988e+06
1585.77
252561
9.87515e+06
2283.38
266333
9.83318e+06
2822.71
274957
9.77739e+06
1702.44
275483
9.68592e+06
1654.53
273080
9.54071e+06
-2838.47
267948
9.34065e+06
-3807.05
222648
9.17634e+06
-868.304
225981
9.11227e+06
-4379.9
270772
9.18059e+06
-1519.7
312287
9.28046e+06
7340.17
425268
9.29762e+06
7442.74
633119
9.13011e+06
-12662.4
819542
8.69718e+06
-17128.6
884382
7.94482e+06
-2665.25
445384
7.00543e+06
21891.3
-655858
5.96336e+06
29320.4
-1.52598e+06
4.83796e+06
5134.54
-1.51461e+06
3.71545e+06
-3570.38
-734877
2.70544e+06
16409.1
174665
1.83844e+06
63555.7
786542
959004
259150
948208
-1.09606e+06
1.12129e+06
1.2335e+06
-355533
17793.5
99758.8
3.01162e+06
-1.11731e+06
435298
4.91638e+06
-110438
-221805
6.04632e+06
478196
-790929
6.47958e+06
551465
-1.03711e+06
6.87886e+06
100016
-68630.3
6.1434e+06
-94793.4
1.72869e+06
4.93485e+06
-204289
2.78655e+06
4.02084e+06
-322042
801154
4.77126e+06
-794830
-1.66721e+06
5.9722e+06
-764767
-556883
5.97628e+06
119546
2.01737e+06
6.2383e+06
75460.2
2.98577e+06
6.9359e+06
-484581
2.23475e+06
7.0993e+06
77388.6
1.40118e+06
7.11075e+06
1.03757e+06
-250824
6.21241e+06
1.66677e+06
-4.92229e+06
5.41988e+06
-2.37419e+06
-196543
-3.90097e+06
-1.72396e+06
1.00048e+07
12930.1
1.00296e+07
36110.5
1.00505e+07
53451.8
1.00651e+07
72217.8
1.00725e+07
93844.6
1.00722e+07
114462
1.00644e+07
135024
1.00495e+07
155261
1.00283e+07
175630
1.00022e+07
195733
9.97196e+06
215710
9.93959e+06
234630
9.90611e+06
251319
9.87082e+06
264599
9.82874e+06
271637
9.76831e+06
272007
9.68045e+06
269235
9.54509e+06
261376
9.37294e+06
252092
9.19243e+06
266655
9.06311e+06
290025
9.09027e+06
297074
9.19073e+06
418669
9.218e+06
603757
9.03884e+06
785846
8.59258e+06
771802
7.89778e+06
179511
7.0317e+06
-766595
6.02937e+06
-1.49124e+06
4.93396e+06
-1.55938e+06
3.85688e+06
-878863
2.93193e+06
41399.2
2.27352e+06
680252
2.02881e+06
818622
2.79606e+06
845768
2.81209e+06
2.3151e+06
87237
1.10433e+06
-385659
-4.37282e+06
653271
-6.91066e+06
1.35289e+06
-8.77214e+06
2.87208e+06
-7.45746e+06
3.13629e+06
-3.99379e+06
3.66514e+06
-3.17953e+06
4.22135e+06
-4.27324e+06
4.25463e+06
-4.88777e+06
4.40629e+06
-4.22029e+06
5.30751e+06
-2.72365e+06
5.9393e+06
-1.15372e+06
6.09193e+06
370547
6.57389e+06
1.26564e+06
9.06022e+06
-692810
1.19805e+07
-2.98931e+06
5.93077e+06
2.51398e+06
2.11308e+06
1.00019e+07
2049.92
14438.1
1.00284e+07
4618.98
40534.8
1.00494e+07
5100.1
60485.9
1.00643e+07
4475.55
81951
1.00722e+07
3762.03
106354
1.00722e+07
2979.49
130063
1.00646e+07
2188.7
153583
1.00497e+07
1487.91
177130
1.00284e+07
963.681
200894
1.00012e+07
664.292
225286
9.96987e+06
607.851
249054
9.93485e+06
766.686
272379
9.89639e+06
1197.42
294086
9.8536e+06
1577.67
312943
9.80201e+06
1716.51
327901
9.73538e+06
991.687
339558
9.6512e+06
-296.433
350129
9.5531e+06
1108.26
363996
9.42152e+06
-7191.39
363769
9.29882e+06
-2786.79
381429
9.19964e+06
3560.07
433265
9.07855e+06
24423.8
521271
9.02436e+06
-538.585
567503
9.03125e+06
-2990.33
677660
8.92166e+06
-13954.4
985314
8.56708e+06
-9344.45
1.29818e+06
7.79362e+06
16002.7
1.25601e+06
6.59835e+06
29983.9
547764
5.28238e+06
36337
-231573
4.0526e+06
14087.3
-299747
2.97719e+06
3667.2
329799
2.03958e+06
29266.7
1.07826e+06
1.04926e+06
118182
1.65506e+06
-870451
554586
2.30769e+06
-3.11698e+06
917755
2.5494e+06
-3.11566e+06
15135.6
84806
-1.47424e+06
844970
-2.04135e+06
798895
912378
-3.16139e+06
2.34182e+06
1.29196e+06
-3.39363e+06
3.56244e+06
1.2605e+06
-3.3846e+06
4.49762e+06
1.04444e+06
-2.24937e+06
4.56764e+06
1.13751e+06
37686.4
4.58468e+06
1.12287e+06
1.0625e+06
4.03674e+06
882518
-409510
2.43988e+06
608384
-1.78416e+06
1.83611e+06
339552
-1.28207e+06
2.22673e+06
1.15806e+06
67975.2
2.86591e+06
1.26872e+06
876063
3.488e+06
458893
1.06914e+06
3.25195e+06
268229
1.0672e+06
-795886
868872
2.20553e+06
-7.64793e+06
2.26802e+06
-587318
-6.1783e+06
-206479
-1.92766e+06
1.39623e+06
-1.57992e+06
1.00045e+07
14323.5
1.00285e+07
40235
1.00484e+07
60082.2
1.00622e+07
81474.6
1.0069e+07
105810
1.00682e+07
129484
1.00601e+07
152998
1.00448e+07
176556
1.00234e+07
200324
9.9963e+06
224702
9.96512e+06
248391
9.93032e+06
271576
9.89206e+06
292975
9.84899e+06
311531
9.79628e+06
326370
9.72894e+06
337780
9.64611e+06
349297
9.546e+06
361439
9.42438e+06
374854
9.31212e+06
401267
9.21346e+06
452139
9.11054e+06
519341
9.00551e+06
622100
8.95643e+06
690559
8.84047e+06
925944
8.461e+06
1.17647e+06
7.70539e+06
987791
6.6298e+06
359002
5.39723e+06
-213136
4.20573e+06
-354136
3.16848e+06
158168
2.35217e+06
883579
1.74937e+06
1.3978e+06
1.06161e+06
2.03639e+06
-595463
3.41599e+06
-620079
2.39001e+06
-310481
1.93683e+06
-708030
-2.9009e+06
-113796
-6.08407e+06
-538387
-7.10476e+06
-61463.4
-7.03102e+06
1.66792e+06
-4.74045e+06
3.65212e+06
-4.21282e+06
4.35658e+06
-4.34628e+06
3.63558e+06
-3.87611e+06
2.8232e+06
-3.26901e+06
3.49997e+06
-2.28586e+06
4.39669e+06
-708743
4.74742e+06
562833
4.74566e+06
1.59644e+06
5.21105e+06
-240213
6.86102e+06
-2.48115e+06
9.76812e+06
-467207
2.05741e+06
1.00018e+07
1918.75
15368.9
1.00273e+07
4371.66
44193.6
1.00474e+07
4775.62
66651.6
1.00615e+07
4143.84
90686.9
1.00686e+07
3429.61
117726
1.00684e+07
2649.87
144169
1.00609e+07
1860.7
170425
1.00458e+07
1146.59
197462
1.00242e+07
572.644
224678
9.99696e+06
177.107
252496
9.96436e+06
-48.1464
280507
9.92697e+06
-110.427
308232
9.88471e+06
7.47584
335061
9.83625e+06
153.402
360468
9.77986e+06
432.52
384388
9.71112e+06
-6.75884
406762
9.63466e+06
858.941
430528
9.54883e+06
1122.1
456532
9.44983e+06
4.75213
485848
9.34323e+06
321.286
533869
9.2542e+06
5861.38
609446
9.19978e+06
18288.1
714532
9.11146e+06
6592.54
847127
8.98678e+06
3742.91
921125
8.8731e+06
-24797
1.18301e+06
8.68004e+06
-31888.3
1.57961e+06
8.2474e+06
-18622.4
1.79665e+06
7.24996e+06
60224
1.62354e+06
5.71839e+06
91105.1
1.31229e+06
4.19339e+06
32363.8
1.24395e+06
3.14879e+06
14447.1
1.36709e+06
2.45901e+06
19600.5
1.74385e+06
1.94265e+06
68383.6
2.09493e+06
948954
473216
2.76616e+06
-761276
550900
3.62147e+06
-1.91783e+06
-127115
1.44454e+06
-1.67081e+06
-385266
-1.34488e+06
-879798
170421
-3.43452e+06
174288
1.09917e+06
-4.42171e+06
730089
1.86229e+06
-4.65025e+06
1.78013e+06
1.55814e+06
-3.82975e+06
3.30392e+06
1.64494e+06
-2.22769e+06
4.59723e+06
1.64205e+06
-1.23719e+06
5.44106e+06
982180
-1.94875e+06
5.51855e+06
484270
-2.30872e+06
5.23325e+06
825430
-1.7807e+06
5.27806e+06
1.08078e+06
-856827
5.51665e+06
1.16141e+06
4524.67
5.86785e+06
713132
860665
6.23628e+06
160203
1.4988e+06
6.83038e+06
-239682
2.74517e+06
2.2104e+06
1.35744e+06
2.92491e+06
2.33022e+06
3.10366e+06
-4.72175e+06
-1.36099e+06
-1.60609e+06
1.00042e+07
15354.6
1.00273e+07
44019.6
1.00464e+07
66253.1
1.00594e+07
90152.1
1.00656e+07
117115
1.00646e+07
143524
1.00565e+07
169787
1.00411e+07
196860
1.00193e+07
224126
9.99205e+06
251986
9.95947e+06
280009
9.92211e+06
307690
9.87985e+06
334368
9.83138e+06
359679
9.77427e+06
383320
9.70656e+06
406014
9.62984e+06
429756
9.54503e+06
457301
9.44743e+06
492501
9.34918e+06
540020
9.26703e+06
615586
9.21105e+06
715851
9.10814e+06
868410
8.95443e+06
953098
8.81864e+06
1.12491e+06
8.57269e+06
1.45178e+06
8.05093e+06
1.61302e+06
7.08487e+06
1.45622e+06
5.84621e+06
1.15319e+06
4.55802e+06
990044
3.46628e+06
1.27384e+06
2.76141e+06
1.60306e+06
2.32106e+06
1.86483e+06
2.16018e+06
2.59839e+06
2.27383e+06
3.85283e+06
2.20721e+06
2.63522e+06
2.66758e+06
1.71835e+06
1.30482e+06
-928551
625991
-3.92228e+06
961993
-5.11922e+06
1.82656e+06
-5.67614e+06
3.44062e+06
-4.08673e+06
4.9084e+06
-3.61748e+06
4.94994e+06
-3.154e+06
3.86629e+06
-2.15142e+06
2.89985e+06
-1.25823e+06
3.10105e+06
-1.07842e+06
3.88402e+06
131864
4.50138e+06
1.26596e+06
4.06424e+06
2.92322e+06
654735
3.52467e+06
-2.34503e+06
2.33331e+06
2.3819e+06
-2.01172e+06
-2.80875e+06
1.00016e+07
1862.52
16523.3
1.00262e+07
4259.58
47632.6
1.00455e+07
4672.23
72441.8
1.0059e+07
4075.28
98918.2
1.00658e+07
3394.9
128456
1.00655e+07
2654.96
157567
1.00578e+07
1910.62
186771
1.00431e+07
1239.84
216984
1.00214e+07
699.215
248059
9.99372e+06
315.987
279872
9.96039e+06
87.2505
312253
9.92117e+06
6.40134
345397
9.87609e+06
90.1659
378330
9.8251e+06
373.059
410889
9.76701e+06
739.786
443889
9.70111e+06
1178.4
477453
9.6292e+06
2141.2
514501
9.5525e+06
3286.51
555351
9.47159e+06
5294.37
607380
9.38851e+06
7371.29
675713
9.3201e+06
13369.9
769155
9.28906e+06
20423.6
890084
9.25696e+06
18531.7
1.07457e+06
9.13473e+06
23383.3
1.24445e+06
8.97811e+06
-2474.63
1.46487e+06
8.81712e+06
-48021.2
1.85938e+06
8.74659e+06
-27659.5
2.13521e+06
8.20137e+06
97907.1
2.40777e+06
6.80936e+06
241466
2.73449e+06
5.14881e+06
205679
2.8789e+06
3.91699e+06
47886
2.61849e+06
3.21314e+06
-33775.7
2.49545e+06
2.88181e+06
23774.5
2.35892e+06
2.6459e+06
296374
2.56839e+06
2.64665e+06
215260
3.34511e+06
3.27469e+06
-494710
1.52864e+06
3.59529e+06
-837225
-137558
2.99357e+06
-143861
-1.83696e+06
2.46565e+06
426564
-3.17981e+06
2.15728e+06
977625
-3.8997e+06
2.70951e+06
1.26866e+06
-3.83212e+06
3.95768e+06
1.24384e+06
-3.13056e+06
5.28044e+06
1.21115e+06
-2.55426e+06
6.25994e+06
345053
-2.47694e+06
7.13105e+06
-636130
-2.12488e+06
8.1633e+06
-1.06298e+06
-1.55807e+06
9.02003e+06
-268303
-1.25368e+06
9.50107e+06
604657
-735601
9.87655e+06
798740
206321
1.02177e+07
639957
1.15467e+06
1.16431e+07
-174111
2.12994e+06
1.01618e+07
582599
4.51266e+06
-1.69092e+06
3.28529e+06
4.18931e+06
5.01917e+06
2.91184e+06
1.00039e+07
16404.8
1.00263e+07
47352
1.00446e+07
72061.7
1.0057e+07
98480.8
1.00629e+07
127976
1.00618e+07
157088
1.00536e+07
186331
1.00385e+07
216604
1.00168e+07
247749
9.98898e+06
279627
9.95564e+06
312078
9.9164e+06
345299
9.87134e+06
378350
9.82037e+06
411115
9.76232e+06
444433
9.69692e+06
478904
9.62573e+06
516330
9.551e+06
558872
9.47224e+06
611493
9.39384e+06
680595
9.33103e+06
772294
9.28975e+06
890228
9.26922e+06
1.06155e+06
9.17573e+06
1.24612e+06
9.02637e+06
1.44722e+06
8.8486e+06
1.74861e+06
8.61986e+06
2.0467e+06
8.00651e+06
2.33113e+06
7.08155e+06
2.43628e+06
5.84102e+06
2.52805e+06
4.588e+06
2.62436e+06
3.63136e+06
2.51979e+06
3.12752e+06
2.33699e+06
3.42194e+06
2.5164e+06
4.13717e+06
3.36138e+06
3.87489e+06
2.57367e+06
4.15508e+06
1.01783e+06
4.11007e+06
-489848
3.29628e+06
-2.11884e+06
3.12665e+06
-3.22646e+06
3.61492e+06
-3.85312e+06
4.89791e+06
-3.06949e+06
5.93809e+06
-2.6721e+06
5.84699e+06
-2.11592e+06
4.5855e+06
-1.07723e+06
3.04318e+06
-387639
2.52824e+06
-567256
3.24945e+06
343476
4.33632e+06
1.48971e+06
5.58052e+06
2.96326e+06
5.48448e+06
4.22178e+06
3.63255e+06
5.34744e+06
830931
4.27937e+06
1.37752e+06
1.00016e+07
1727.81
17139.6
1.00254e+07
4037.3
50492.1
1.0044e+07
4372.33
77739.8
1.00569e+07
3777.73
106675
1.00636e+07
3112.05
138585
1.00634e+07
2393.41
170306
1.00561e+07
1671.66
202425
1.00419e+07
1011.3
235937
1.00209e+07
459.951
270791
9.99338e+06
38.1298
306975
9.95962e+06
-230.671
344511
9.91978e+06
-331.067
383730
9.87385e+06
-184.988
424187
9.82193e+06
296.692
466007
9.76448e+06
1056.67
509578
9.70242e+06
2353.03
556236
9.63595e+06
3569.72
606220
9.57062e+06
6245.43
662118
9.50724e+06
8434.06
725113
9.45226e+06
11641.1
801459
9.41733e+06
16446.7
895340
9.40613e+06
17230.1
1.02161e+06
9.41245e+06
14517.2
1.2205e+06
9.39573e+06
32893
1.4588e+06
9.27073e+06
50638.9
1.75553e+06
9.1325e+06
20899.5
2.16468e+06
9.01805e+06
69249.5
2.47986e+06
8.77441e+06
78395.5
2.87082e+06
8.25146e+06
131626
3.39469e+06
7.24369e+06
219758
3.88958e+06
5.84374e+06
213607
3.95999e+06
4.6768e+06
106918
3.61227e+06
3.97736e+06
11549.8
3.00721e+06
3.73107e+06
38460.8
2.6734e+06
4.10284e+06
62818.6
2.84543e+06
4.16461e+06
-273542
1.85376e+06
4.24403e+06
-298537
497807
4.08318e+06
-76647.4
-881834
3.8945e+06
23819.5
-1.95178e+06
3.96112e+06
178795
-2.4951e+06
4.46419e+06
477015
-2.59662e+06
5.33197e+06
470034
-2.32589e+06
6.21752e+06
419451
-2.22172e+06
6.9116e+06
123024
-2.14903e+06
7.69482e+06
-429576
-1.84599e+06
8.68227e+06
-1.08358e+06
-1.29438e+06
9.50682e+06
-1.29408e+06
-896921
1.01376e+07
-761531
-700611
1.07535e+07
132545
-357631
1.15561e+07
763710
94070.9
1.30506e+07
704129
527111
1.48808e+07
613232
2.73205e+06
1.48148e+07
626577
3.7786e+06
822544
3.99529e+06
1.00036e+07
17122.2
1.00253e+07
50329.3
1.0043e+07
77374.6
1.0055e+07
106186
1.00608e+07
138037
1.00599e+07
169754
1.00521e+07
201917
1.00376e+07
235511
1.00164e+07
270472
9.98881e+06
306777
9.95502e+06
344441
9.9152e+06
383811
9.86936e+06
424446
9.81766e+06
466494
9.76077e+06
510485
9.69906e+06
557529
9.63456e+06
608585
9.56986e+06
664869
9.50934e+06
729085
9.45654e+06
806497
9.4198e+06
904239
9.40609e+06
1.02842e+06
9.41513e+06
1.20063e+06
9.42826e+06
1.44415e+06
9.34685e+06
1.77334e+06
9.18289e+06
2.14888e+06
8.97977e+06
2.5376e+06
8.65732e+06
2.92727e+06
8.12698e+06
3.26196e+06
7.4069e+06
3.59315e+06
6.55283e+06
3.76826e+06
5.60582e+06
3.58971e+06
4.77077e+06
3.13799e+06
4.52158e+06
2.75522e+06
5.1015e+06
2.84276e+06
5.18101e+06
2.32059e+06
5.07335e+06
1.11827e+06
5.1322e+06
-109343
4.99296e+06
-1.29259e+06
4.95948e+06
-2.07879e+06
5.27374e+06
-2.43645e+06
6.07038e+06
-2.17488e+06
6.54592e+06
-1.77393e+06
6.74069e+06
-1.48456e+06
6.70631e+06
-1.06692e+06
5.80131e+06
-476177
3.84107e+06
45634
2.86827e+06
629012
3.56627e+06
1.24366e+06
5.5242e+06
2.20585e+06
8.18897e+06
2.75398e+06
1.08839e+07
3.50083e+06
1.2042e+07
4.18846e+06
3.08043e+06
1.00013e+07
1674.09
17986
1.00246e+07
3938.27
53104.5
1.00427e+07
4300.54
82592.9
1.00555e+07
3754.51
113800
1.00623e+07
3135.74
147917
1.00626e+07
2470.38
182154
1.0056e+07
1806.63
217400
1.00427e+07
1205.56
254140
1.0023e+07
708.728
292820
9.99646e+06
340.644
334010
9.96328e+06
131.431
377500
9.92404e+06
128.487
423446
9.87877e+06
419.971
472354
9.82836e+06
1114.81
523976
9.77338e+06
2272.69
579450
9.71538e+06
3796.9
638914
9.65593e+06
5765.49
703060
9.59944e+06
8296.46
772228
9.55063e+06
10849.9
844111
9.51757e+06
15171.7
924261
9.50679e+06
18918.4
1.01319e+06
9.47509e+06
33055.2
1.14738e+06
9.52685e+06
18538.1
1.26805e+06
9.68584e+06
23872.1
1.48979e+06
9.6856e+06
45061
1.94956e+06
9.52629e+06
70435.1
2.5105e+06
9.25709e+06
66033.1
2.92788e+06
9.05941e+06
47418.1
3.22584e+06
8.97194e+06
45851.3
3.60324e+06
8.75442e+06
103145
4.13402e+06
8.08002e+06
182336
4.53348e+06
7.0148e+06
201520
4.49719e+06
5.87491e+06
113777
3.99739e+06
5.11088e+06
31825.6
3.3411e+06
5.06349e+06
26489.4
2.84746e+06
5.07261e+06
-103074
2.05033e+06
5.05036e+06
-129002
1.0069e+06
4.84862e+06
16993.2
8664.03
4.67755e+06
115804
-834119
4.85288e+06
158378
-1.36349e+06
5.37829e+06
268412
-1.56265e+06
6.08265e+06
265085
-1.5162e+06
6.80148e+06
76880.1
-1.4779e+06
7.5649e+06
-178886
-1.57747e+06
8.32419e+06
-283328
-1.62958e+06
9.12627e+06
-441309
-1.47176e+06
9.9901e+06
-829345
-1.08056e+06
1.08579e+07
-1.22049e+06
-579814
1.15926e+07
-1.01096e+06
-298981
1.21605e+07
-367692
-255448
1.28507e+07
181186
-229920
1.47419e+07
135073
707659
1.81434e+07
-586666
1.66837e+06
-1.00852e+06
3.46701e+06
1.00034e+07
17874.9
1.00245e+07
52879.5
1.00418e+07
82287.4
1.00537e+07
113462
1.00597e+07
147572
1.00593e+07
181851
1.00522e+07
217182
1.00386e+07
254040
1.00187e+07
292860
9.99216e+06
334213
9.959e+06
377889
9.91983e+06
424080
9.87475e+06
473317
9.82471e+06
525374
9.77031e+06
581431
9.71322e+06
641613
9.65518e+06
706865
9.59956e+06
776416
9.55209e+06
849998
9.52161e+06
929987
9.51622e+06
1.02329e+06
9.54677e+06
1.13273e+06
9.61282e+06