/*--------------------------------*- C++ -*----------------------------------*\
| =========                 |                                                 |
| \\      /  F ield         | OpenFOAM: The Open Source CFD Toolbox           |
|  \\    /   O peration     | Version:  4.1                                   |
|   \\  /    A nd           | Web:      www.OpenFOAM.org                      |
|    \\/     M anipulation  |                                                 |
\*---------------------------------------------------------------------------*/
FoamFile
{
    version     2.0;
    format      ascii;
    class       volScalarField;
    location    "40";
    object      p;
}
// * * * * * * * * * * * * * * * * * * * * * * * * * * * * * * * * * * * * * //

dimensions      [0 2 -2 0 0 0 0];

internalField   nonuniform List<scalar> 
4432
(
-3.37429e+10
-3.69013e+10
-3.66056e+10
-3.05496e+10
-3.01317e+10
-3.13702e+10
-3.07345e+10
-3.0291e+10
-3.00322e+10
-2.98765e+10
-2.96821e+10
-2.94381e+10
-2.91753e+10
-2.89302e+10
-2.8742e+10
-2.85858e+10
-2.83951e+10
-2.81791e+10
-2.79567e+10
-2.77356e+10
-2.75083e+10
-2.72773e+10
-2.70443e+10
-2.68118e+10
-2.65836e+10
-2.63636e+10
-2.61557e+10
-2.59629e+10
-2.57872e+10
-2.56293e+10
-2.54886e+10
-2.53639e+10
-2.52524e+10
-2.51486e+10
-2.50447e+10
-2.49324e+10
-2.48014e+10
-2.46418e+10
-2.44465e+10
-2.42141e+10
-2.39525e+10
-2.36817e+10
-2.34334e+10
-2.32515e+10
-2.31904e+10
-2.32923e+10
-2.35313e+10
-2.37564e+10
-2.37589e+10
-2.37156e+10
-2.49089e+10
-2.87974e+10
-3.15522e+10
-1.64433e+10
-3.39814e+10
-3.48534e+10
-3.44872e+10
-3.23589e+10
-3.02678e+10
-3.09711e+10
-3.07382e+10
-3.02775e+10
-3.00335e+10
-2.99191e+10
-2.97301e+10
-2.94598e+10
-2.91756e+10
-2.89328e+10
-2.8752e+10
-2.8594e+10
-2.83956e+10
-2.81751e+10
-2.79548e+10
-2.77332e+10
-2.75045e+10
-2.72724e+10
-2.70382e+10
-2.68048e+10
-2.65759e+10
-2.63553e+10
-2.61469e+10
-2.59536e+10
-2.57776e+10
-2.56193e+10
-2.5478e+10
-2.53523e+10
-2.52394e+10
-2.51342e+10
-2.50295e+10
-2.49164e+10
-2.47843e+10
-2.46235e+10
-2.44266e+10
-2.41923e+10
-2.39288e+10
-2.36563e+10
-2.34066e+10
-2.32232e+10
-2.31579e+10
-2.3249e+10
-2.34625e+10
-2.36294e+10
-2.35165e+10
-2.32843e+10
-2.43063e+10
-2.85175e+10
-3.2745e+10
-2.06009e+10
-3.36193e+10
-3.33517e+10
-3.27718e+10
-3.26809e+10
-3.05665e+10
-3.04128e+10
-3.0704e+10
-3.03279e+10
-3.00622e+10
-2.99425e+10
-2.97427e+10
-2.95044e+10
-2.92338e+10
-2.89584e+10
-2.87382e+10
-2.85873e+10
-2.8423e+10
-2.82127e+10
-2.79899e+10
-2.77617e+10
-2.75291e+10
-2.72917e+10
-2.70511e+10
-2.68102e+10
-2.65731e+10
-2.63441e+10
-2.6127e+10
-2.59254e+10
-2.57414e+10
-2.55759e+10
-2.5428e+10
-2.52966e+10
-2.51804e+10
-2.50722e+10
-2.49609e+10
-2.48399e+10
-2.4701e+10
-2.45353e+10
-2.4336e+10
-2.41012e+10
-2.38372e+10
-2.35622e+10
-2.33064e+10
-2.31088e+10
-2.30158e+10
-2.30642e+10
-2.32068e+10
-2.32468e+10
-2.29722e+10
-2.27206e+10
-2.41359e+10
-2.87995e+10
-3.16272e+10
-1.84209e+10
-3.3733e+10
-3.37844e+10
-3.30953e+10
-3.19254e+10
-3.05356e+10
-3.0464e+10
-3.07132e+10
-3.02854e+10
-3.00704e+10
-2.99467e+10
-2.97578e+10
-2.951e+10
-2.92259e+10
-2.89469e+10
-2.87375e+10
-2.85993e+10
-2.84278e+10
-2.82055e+10
-2.79847e+10
-2.77565e+10
-2.75231e+10
-2.72844e+10
-2.70424e+10
-2.68004e+10
-2.65622e+10
-2.63322e+10
-2.61145e+10
-2.59125e+10
-2.57284e+10
-2.55632e+10
-2.54157e+10
-2.52837e+10
-2.51646e+10
-2.50529e+10
-2.49412e+10
-2.48202e+10
-2.46805e+10
-2.45144e+10
-2.43164e+10
-2.40844e+10
-2.38252e+10
-2.35571e+10
-2.331e+10
-2.31223e+10
-2.30386e+10
-2.30881e+10
-2.32203e+10
-2.32399e+10
-2.29259e+10
-2.26548e+10
-2.43504e+10
-2.988e+10
-3.24659e+10
-1.58957e+10
-3.42939e+10
-3.311e+10
-3.13771e+10
-3.22592e+10
-3.07897e+10
-3.00816e+10
-3.00417e+10
-2.99852e+10
-2.99408e+10
-2.98728e+10
-2.97066e+10
-2.95014e+10
-2.92364e+10
-2.89499e+10
-2.87251e+10
-2.85645e+10
-2.83941e+10
-2.81875e+10
-2.79709e+10
-2.77431e+10
-2.75073e+10
-2.72646e+10
-2.70169e+10
-2.67679e+10
-2.65218e+10
-2.62838e+10
-2.60585e+10
-2.58501e+10
-2.56614e+10
-2.54934e+10
-2.53431e+10
-2.52049e+10
-2.50756e+10
-2.49556e+10
-2.48365e+10
-2.47046e+10
-2.4554e+10
-2.43769e+10
-2.41686e+10
-2.39274e+10
-2.36618e+10
-2.33941e+10
-2.31581e+10
-2.2994e+10
-2.29454e+10
-2.30351e+10
-2.31981e+10
-2.32233e+10
-2.28777e+10
-2.24963e+10
-2.37297e+10
-2.81801e+10
-3.12719e+10
-1.6455e+10
-3.36855e+10
-3.34584e+10
-3.23459e+10
-3.10964e+10
-3.07252e+10
-3.04124e+10
-3.01962e+10
-2.99837e+10
-2.99651e+10
-2.98763e+10
-2.97051e+10
-2.94887e+10
-2.92277e+10
-2.89521e+10
-2.87339e+10
-2.85864e+10
-2.84103e+10
-2.81973e+10
-2.79805e+10
-2.77532e+10
-2.75174e+10
-2.72738e+10
-2.70251e+10
-2.67748e+10
-2.65274e+10
-2.62878e+10
-2.60608e+10
-2.58505e+10
-2.56599e+10
-2.54899e+10
-2.5338e+10
-2.51997e+10
-2.50712e+10
-2.49491e+10
-2.48261e+10
-2.46941e+10
-2.45436e+10
-2.43674e+10
-2.41609e+10
-2.39223e+10
-2.36593e+10
-2.3393e+10
-2.31553e+10
-2.29834e+10
-2.29152e+10
-2.29656e+10
-2.3064e+10
-2.29892e+10
-2.25006e+10
-2.198e+10
-2.32521e+10
-2.8182e+10
-3.24501e+10
-1.95504e+10
-3.28196e+10
-3.2753e+10
-3.19312e+10
-3.11772e+10
-3.09327e+10
-3.04309e+10
-3.0099e+10
-2.99092e+10
-2.98509e+10
-2.97733e+10
-2.96255e+10
-2.94496e+10
-2.9223e+10
-2.89779e+10
-2.87764e+10
-2.86133e+10
-2.84325e+10
-2.8226e+10
-2.80111e+10
-2.7784e+10
-2.75456e+10
-2.72963e+10
-2.70397e+10
-2.67804e+10
-2.65245e+10
-2.62786e+10
-2.60489e+10
-2.58408e+10
-2.56575e+10
-2.54986e+10
-2.53582e+10
-2.52238e+10
-2.50897e+10
-2.4974e+10
-2.48732e+10
-2.47394e+10
-2.45766e+10
-2.4387e+10
-2.41617e+10
-2.39013e+10
-2.36161e+10
-2.33321e+10
-2.30857e+10
-2.2917e+10
-2.2866e+10
-2.2945e+10
-2.30792e+10
-2.30587e+10
-2.26388e+10
-2.20987e+10
-2.30243e+10
-2.73278e+10
-3.11431e+10
-1.69095e+10
-3.26491e+10
-3.2255e+10
-3.15148e+10
-3.08895e+10
-3.11272e+10
-3.08107e+10
-3.02151e+10
-2.9901e+10
-2.98519e+10
-2.97592e+10
-2.96175e+10
-2.94387e+10
-2.92174e+10
-2.89861e+10
-2.87954e+10
-2.86346e+10
-2.84466e+10
-2.82376e+10
-2.80215e+10
-2.77936e+10
-2.75536e+10
-2.73023e+10
-2.70431e+10
-2.67809e+10
-2.65218e+10
-2.62724e+10
-2.6039e+10
-2.58267e+10
-2.56386e+10
-2.54751e+10
-2.53322e+10
-2.52027e+10
-2.50817e+10
-2.4966e+10
-2.48473e+10
-2.47177e+10
-2.45637e+10
-2.4376e+10
-2.41547e+10
-2.38987e+10
-2.36167e+10
-2.33332e+10
-2.30833e+10
-2.29047e+10
-2.28316e+10
-2.28733e+10
-2.29525e+10
-2.2853e+10
-2.23431e+10
-2.18446e+10
-2.33533e+10
-2.88183e+10
-3.23927e+10
-1.73288e+10
-3.14521e+10
-3.14163e+10
-3.12564e+10
-3.07002e+10
-3.07179e+10
-3.04033e+10
-3.00626e+10
-2.98392e+10
-2.97659e+10
-2.97105e+10
-2.95754e+10
-2.93735e+10
-2.91661e+10
-2.89641e+10
-2.87953e+10
-2.86341e+10
-2.84524e+10
-2.82518e+10
-2.80391e+10
-2.78113e+10
-2.75676e+10
-2.73078e+10
-2.7036e+10
-2.6758e+10
-2.64831e+10
-2.62203e+10
-2.59779e+10
-2.57619e+10
-2.55752e+10
-2.54157e+10
-2.52765e+10
-2.51473e+10
-2.50229e+10
-2.49092e+10
-2.47986e+10
-2.46653e+10
-2.44991e+10
-2.42956e+10
-2.40493e+10
-2.37632e+10
-2.34506e+10
-2.31375e+10
-2.28602e+10
-2.26596e+10
-2.25726e+10
-2.26058e+10
-2.26808e+10
-2.25796e+10
-2.20266e+10
-2.12058e+10
-2.16314e+10
-2.57012e+10
-3.11061e+10
-2.19683e+10
-3.15652e+10
-3.12091e+10
-3.08306e+10
-3.06206e+10
-3.09148e+10
-3.06205e+10
-3.01591e+10
-2.98679e+10
-2.9741e+10
-2.96572e+10
-2.95402e+10
-2.93662e+10
-2.91653e+10
-2.8969e+10
-2.8802e+10
-2.86395e+10
-2.84532e+10
-2.82499e+10
-2.80347e+10
-2.78046e+10
-2.75577e+10
-2.72946e+10
-2.70187e+10
-2.67368e+10
-2.64576e+10
-2.61907e+10
-2.59443e+10
-2.5724e+10
-2.55325e+10
-2.53694e+10
-2.52317e+10
-2.51117e+10
-2.50003e+10
-2.48934e+10
-2.47834e+10
-2.46582e+10
-2.45058e+10
-2.43163e+10
-2.40853e+10
-2.38149e+10
-2.35183e+10
-2.32205e+10
-2.29571e+10
-2.27696e+10
-2.26952e+10
-2.27419e+10
-2.28355e+10
-2.27622e+10
-2.22706e+10
-2.17009e+10
-2.29689e+10
-2.81766e+10
-3.1945e+10
-1.67255e+10
-3.08673e+10
-3.07348e+10
-3.06238e+10
-3.04781e+10
-3.05033e+10
-3.03109e+10
-3.00274e+10
-2.97948e+10
-2.96763e+10
-2.96307e+10
-2.9549e+10
-2.93615e+10
-2.91667e+10
-2.89987e+10
-2.88498e+10
-2.86942e+10
-2.85204e+10
-2.83301e+10
-2.81249e+10
-2.79018e+10
-2.76574e+10
-2.73906e+10
-2.71039e+10
-2.68062e+10
-2.65099e+10
-2.62285e+10
-2.59719e+10
-2.57449e+10
-2.55496e+10
-2.53847e+10
-2.52449e+10
-2.51246e+10
-2.50188e+10
-2.49197e+10
-2.48129e+10
-2.46877e+10
-2.45343e+10
-2.43431e+10
-2.41089e+10
-2.38353e+10
-2.35368e+10
-2.32392e+10
-2.29785e+10
-2.27964e+10
-2.27306e+10
-2.27891e+10
-2.29028e+10
-2.28654e+10
-2.23952e+10
-2.16249e+10
-2.20129e+10
-2.59028e+10
-3.08318e+10
-1.92287e+10
-3.09365e+10
-3.07649e+10
-3.05908e+10
-3.04461e+10
-3.05731e+10
-3.03415e+10
-3.00412e+10
-2.98416e+10
-2.97103e+10
-2.96253e+10
-2.95143e+10
-2.93467e+10
-2.91644e+10
-2.89997e+10
-2.88497e+10
-2.86919e+10
-2.85156e+10
-2.83239e+10
-2.81176e+10
-2.78932e+10
-2.76474e+10
-2.73786e+10
-2.70898e+10
-2.67897e+10
-2.64907e+10
-2.62055e+10
-2.59443e+10
-2.57136e+10
-2.55154e+10
-2.53481e+10
-2.52085e+10
-2.50907e+10
-2.49864e+10
-2.4888e+10
-2.47858e+10
-2.46674e+10
-2.45222e+10
-2.43404e+10
-2.41163e+10
-2.38529e+10
-2.35649e+10
-2.32774e+10
-2.30268e+10
-2.28557e+10
-2.28038e+10
-2.28822e+10
-2.30261e+10
-2.30337e+10
-2.26457e+10
-2.20952e+10
-2.30296e+10
-2.75536e+10
-3.15506e+10
-1.69369e+10
-3.0297e+10
-3.02602e+10
-3.02344e+10
-3.02886e+10
-3.02624e+10
-3.01312e+10
-2.99216e+10
-2.97207e+10
-2.96085e+10
-2.95643e+10
-2.94638e+10
-2.93028e+10
-2.91477e+10
-2.90108e+10
-2.88749e+10
-2.87276e+10
-2.85631e+10
-2.83811e+10
-2.81816e+10
-2.79607e+10
-2.77121e+10
-2.74306e+10
-2.71166e+10
-2.67841e+10
-2.64516e+10
-2.61386e+10
-2.58575e+10
-2.5615e+10
-2.54118e+10
-2.52436e+10
-2.51054e+10
-2.49932e+10
-2.49021e+10
-2.48202e+10
-2.47326e+10
-2.46291e+10
-2.45004e+10
-2.43377e+10
-2.41368e+10
-2.39008e+10
-2.36432e+10
-2.33889e+10
-2.31735e+10
-2.30385e+10
-2.30211e+10
-2.31336e+10
-2.33204e+10
-2.34009e+10
-2.31288e+10
-2.26995e+10
-2.36487e+10
-2.79451e+10
-3.15862e+10
-1.68453e+10
-3.03208e+10
-3.0316e+10
-3.04121e+10
-3.03264e+10
-3.02124e+10
-3.00329e+10
-2.98854e+10
-2.97571e+10
-2.96572e+10
-2.95665e+10
-2.94445e+10
-2.92964e+10
-2.91495e+10
-2.90142e+10
-2.88788e+10
-2.87307e+10
-2.85658e+10
-2.83842e+10
-2.81848e+10
-2.79638e+10
-2.77148e+10
-2.74322e+10
-2.7118e+10
-2.67847e+10
-2.64513e+10
-2.61358e+10
-2.5852e+10
-2.56073e+10
-2.54026e+10
-2.52343e+10
-2.50968e+10
-2.49842e+10
-2.48905e+10
-2.48057e+10
-2.47173e+10
-2.46142e+10
-2.44858e+10
-2.43234e+10
-2.41223e+10
-2.38857e+10
-2.36267e+10
-2.33697e+10
-2.31497e+10
-2.30082e+10
-2.29827e+10
-2.30857e+10
-2.3261e+10
-2.33262e+10
-2.30345e+10
-2.25783e+10
-2.35054e+10
-2.79372e+10
-3.22074e+10
-1.90334e+10
-2.99279e+10
-2.99254e+10
-3.00231e+10
-3.0168e+10
-3.01371e+10
-2.99508e+10
-2.97483e+10
-2.9595e+10
-2.95409e+10
-2.95212e+10
-2.94167e+10
-2.92797e+10
-2.91565e+10
-2.90423e+10
-2.89238e+10
-2.87914e+10
-2.86407e+10
-2.84701e+10
-2.82795e+10
-2.80653e+10
-2.78181e+10
-2.75237e+10
-2.71806e+10
-2.68047e+10
-2.64271e+10
-2.6075e+10
-2.57658e+10
-2.5507e+10
-2.52972e+10
-2.51286e+10
-2.49944e+10
-2.48897e+10
-2.48037e+10
-2.47251e+10
-2.46433e+10
-2.45482e+10
-2.44289e+10
-2.42765e+10
-2.40868e+10
-2.38629e+10
-2.36175e+10
-2.33744e+10
-2.31669e+10
-2.30337e+10
-2.30084e+10
-2.31002e+10
-2.32522e+10
-2.32878e+10
-2.29714e+10
-2.25053e+10
-2.34504e+10
-2.80168e+10
-3.27402e+10
-1.93405e+10
-2.9917e+10
-2.99408e+10
-3.01762e+10
-3.02723e+10
-3.00985e+10
-2.98657e+10
-2.97482e+10
-2.96469e+10
-2.95743e+10
-2.95113e+10
-2.94075e+10
-2.92846e+10
-2.91661e+10
-2.90525e+10
-2.89332e+10
-2.88e+10
-2.86488e+10
-2.84777e+10
-2.82861e+10
-2.80702e+10
-2.78203e+10
-2.75238e+10
-2.71778e+10
-2.67997e+10
-2.64199e+10
-2.60656e+10
-2.57547e+10
-2.54944e+10
-2.52844e+10
-2.51183e+10
-2.49859e+10
-2.488e+10
-2.47919e+10
-2.47113e+10
-2.46275e+10
-2.453e+10
-2.44081e+10
-2.42525e+10
-2.40593e+10
-2.38316e+10
-2.35818e+10
-2.33332e+10
-2.31183e+10
-2.29745e+10
-2.29339e+10
-2.30033e+10
-2.31226e+10
-2.31098e+10
-2.27171e+10
-2.20936e+10
-2.26892e+10
-2.69567e+10
-3.31505e+10
-2.38227e+10
-2.97505e+10
-2.96981e+10
-2.97908e+10
-2.99233e+10
-2.99519e+10
-2.97782e+10
-2.95996e+10
-2.95124e+10
-2.9493e+10
-2.94515e+10
-2.93603e+10
-2.92608e+10
-2.91683e+10
-2.90773e+10
-2.89791e+10
-2.88648e+10
-2.87288e+10
-2.85692e+10
-2.8387e+10
-2.81812e+10
-2.7939e+10
-2.76349e+10
-2.72524e+10
-2.68125e+10
-2.63687e+10
-2.59659e+10
-2.56271e+10
-2.53571e+10
-2.51501e+10
-2.49935e+10
-2.48741e+10
-2.47837e+10
-2.47109e+10
-2.46436e+10
-2.45714e+10
-2.44835e+10
-2.43692e+10
-2.42203e+10
-2.40335e+10
-2.38127e+10
-2.35714e+10
-2.33343e+10
-2.31348e+10
-2.30102e+10
-2.29905e+10
-2.30776e+10
-2.32027e+10
-2.31736e+10
-2.27335e+10
-2.20401e+10
-2.26064e+10
-2.69025e+10
-3.28497e+10
-2.33372e+10
-2.97232e+10
-2.96747e+10
-2.98319e+10
-2.99903e+10
-2.99181e+10
-2.97442e+10
-2.96503e+10
-2.95713e+10
-2.94987e+10
-2.94311e+10
-2.93475e+10
-2.92571e+10
-2.9166e+10
-2.90744e+10
-2.89746e+10
-2.88595e+10
-2.87233e+10
-2.85639e+10
-2.83819e+10
-2.8176e+10
-2.79344e+10
-2.76321e+10
-2.72527e+10
-2.68173e+10
-2.63765e+10
-2.5975e+10
-2.5635e+10
-2.53621e+10
-2.5153e+10
-2.4997e+10
-2.48785e+10
-2.47879e+10
-2.47148e+10
-2.46484e+10
-2.45787e+10
-2.44937e+10
-2.43828e+10
-2.42378e+10
-2.40552e+10
-2.38392e+10
-2.36038e+10
-2.33735e+10
-2.3182e+10
-2.30669e+10
-2.30586e+10
-2.31595e+10
-2.32995e+10
-2.32817e+10
-2.28373e+10
-2.20996e+10
-2.2537e+10
-2.67655e+10
-3.25619e+10
-2.10583e+10
-2.97e+10
-2.96029e+10
-2.95481e+10
-2.95926e+10
-2.96874e+10
-2.96249e+10
-2.9527e+10
-2.94924e+10
-2.94636e+10
-2.93983e+10
-2.93317e+10
-2.92666e+10
-2.92018e+10
-2.91353e+10
-2.90602e+10
-2.8968e+10
-2.88518e+10
-2.87089e+10
-2.85416e+10
-2.8353e+10
-2.81299e+10
-2.7826e+10
-2.73869e+10
-2.68333e+10
-2.62692e+10
-2.57832e+10
-2.54039e+10
-2.51264e+10
-2.49307e+10
-2.47959e+10
-2.47035e+10
-2.46381e+10
-2.45863e+10
-2.45364e+10
-2.44776e+10
-2.43987e+10
-2.42889e+10
-2.41412e+10
-2.39535e+10
-2.37322e+10
-2.34939e+10
-2.32669e+10
-2.30889e+10
-2.30009e+10
-2.30356e+10
-2.31936e+10
-2.33978e+10
-2.34401e+10
-2.30532e+10
-2.2437e+10
-2.31814e+10
-2.75811e+10
-3.17357e+10
-1.73611e+10
-2.9645e+10
-2.95185e+10
-2.95088e+10
-2.9609e+10
-2.96819e+10
-2.96676e+10
-2.95766e+10
-2.95051e+10
-2.94459e+10
-2.93882e+10
-2.93282e+10
-2.92656e+10
-2.92008e+10
-2.91338e+10
-2.90575e+10
-2.89646e+10
-2.88483e+10
-2.87053e+10
-2.85376e+10
-2.83484e+10
-2.81253e+10
-2.78227e+10
-2.73888e+10
-2.68429e+10
-2.62867e+10
-2.58058e+10
-2.54281e+10
-2.51496e+10
-2.49532e+10
-2.48188e+10
-2.47259e+10
-2.46601e+10
-2.46086e+10
-2.45596e+10
-2.45031e+10
-2.44275e+10
-2.43219e+10
-2.41784e+10
-2.3995e+10
-2.37776e+10
-2.35427e+10
-2.33187e+10
-2.31437e+10
-2.30595e+10
-2.31e+10
-2.32674e+10
-2.34854e+10
-2.35426e+10
-2.31649e+10
-2.25477e+10
-2.32882e+10
-2.76003e+10
-3.14766e+10
-1.69977e+10
-2.95962e+10
-2.94765e+10
-2.93234e+10
-2.93409e+10
-2.94388e+10
-2.94613e+10
-2.94327e+10
-2.93954e+10
-2.93543e+10
-2.93127e+10
-2.92738e+10
-2.92379e+10
-2.92056e+10
-2.91741e+10
-2.91358e+10
-2.90815e+10
-2.90023e+10
-2.88929e+10
-2.87542e+10
-2.85944e+10
-2.84106e+10
-2.81366e+10
-2.76395e+10
-2.69035e+10
-2.61324e+10
-2.55288e+10
-2.51091e+10
-2.48351e+10
-2.46626e+10
-2.45569e+10
-2.44931e+10
-2.44513e+10
-2.44167e+10
-2.43775e+10
-2.43228e+10
-2.42408e+10
-2.41206e+10
-2.39547e+10
-2.37416e+10
-2.34884e+10
-2.32136e+10
-2.29481e+10
-2.27331e+10
-2.26131e+10
-2.26233e+10
-2.27643e+10
-2.29539e+10
-2.29743e+10
-2.25664e+10
-2.19802e+10
-2.28212e+10
-2.71349e+10
-3.10265e+10
-1.69749e+10
-2.94962e+10
-2.93696e+10
-2.93053e+10
-2.93636e+10
-2.94875e+10
-2.95001e+10
-2.94235e+10
-2.93836e+10
-2.93486e+10
-2.93091e+10
-2.9271e+10
-2.92358e+10
-2.92029e+10
-2.91698e+10
-2.91295e+10
-2.90735e+10
-2.89932e+10
-2.88831e+10
-2.87435e+10
-2.85826e+10
-2.83984e+10
-2.81243e+10
-2.76281e+10
-2.6896e+10
-2.61283e+10
-2.55257e+10
-2.51041e+10
-2.48289e+10
-2.46575e+10
-2.45541e+10
-2.44924e+10
-2.44526e+10
-2.442e+10
-2.43826e+10
-2.43296e+10
-2.42495e+10
-2.41309e+10
-2.39658e+10
-2.37523e+10
-2.34966e+10
-2.32169e+10
-2.29435e+10
-2.27175e+10
-2.25832e+10
-2.25764e+10
-2.26983e+10
-2.2866e+10
-2.28564e+10
-2.23995e+10
-2.17274e+10
-2.24419e+10
-2.67006e+10
-3.10966e+10
-1.83066e+10
-2.94018e+10
-2.92996e+10
-2.9232e+10
-2.92665e+10
-2.93159e+10
-2.93451e+10
-2.93483e+10
-2.93321e+10
-2.93093e+10
-2.92883e+10
-2.92742e+10
-2.92707e+10
-2.92758e+10
-2.92832e+10
-2.92824e+10
-2.9261e+10
-2.9209e+10
-2.91201e+10
-2.89946e+10
-2.88475e+10
-2.87068e+10
-2.85169e+10
-2.80227e+10
-2.70193e+10
-2.59019e+10
-2.51694e+10
-2.476e+10
-2.45369e+10
-2.44305e+10
-2.43859e+10
-2.43723e+10
-2.43702e+10
-2.43669e+10
-2.43526e+10
-2.43176e+10
-2.42507e+10
-2.41414e+10
-2.39817e+10
-2.37693e+10
-2.35107e+10
-2.3223e+10
-2.29356e+10
-2.26879e+10
-2.25219e+10
-2.24706e+10
-2.25321e+10
-2.26228e+10
-2.25298e+10
-2.2026e+10
-2.14152e+10
-2.22621e+10
-2.63818e+10
-3.04771e+10
-1.91931e+10
-2.93168e+10
-2.92746e+10
-2.92895e+10
-2.93387e+10
-2.93772e+10
-2.93642e+10
-2.93514e+10
-2.93395e+10
-2.93208e+10
-2.93005e+10
-2.92852e+10
-2.92799e+10
-2.92829e+10
-2.92878e+10
-2.92844e+10
-2.92611e+10
-2.9208e+10
-2.91182e+10
-2.89914e+10
-2.88433e+10
-2.8702e+10
-2.85127e+10
-2.80277e+10
-2.70424e+10
-2.59446e+10
-2.52106e+10
-2.47873e+10
-2.45503e+10
-2.44328e+10
-2.438e+10
-2.436e+10
-2.43527e+10
-2.43454e+10
-2.43279e+10
-2.429e+10
-2.42206e+10
-2.41089e+10
-2.39469e+10
-2.37321e+10
-2.3471e+10
-2.31808e+10
-2.28912e+10
-2.26415e+10
-2.24742e+10
-2.24221e+10
-2.24835e+10
-2.25721e+10
-2.24679e+10
-2.19279e+10
-2.12215e+10
-2.18723e+10
-2.59023e+10
-3.05983e+10
-2.07701e+10
-2.91304e+10
-2.90467e+10
-2.91096e+10
-2.91554e+10
-2.91644e+10
-2.91667e+10
-2.91739e+10
-2.91769e+10
-2.91757e+10
-2.91769e+10
-2.91881e+10
-2.92161e+10
-2.92603e+10
-2.93099e+10
-2.93457e+10
-2.93504e+10
-2.93161e+10
-2.92475e+10
-2.91562e+10
-2.90529e+10
-2.89964e+10
-2.90182e+10
-2.87552e+10
-2.73891e+10
-2.55632e+10
-2.45614e+10
-2.41698e+10
-2.40432e+10
-2.40547e+10
-2.41051e+10
-2.41601e+10
-2.42067e+10
-2.42399e+10
-2.42551e+10
-2.42459e+10
-2.4204e+10
-2.41206e+10
-2.3989e+10
-2.38079e+10
-2.35838e+10
-2.33334e+10
-2.30838e+10
-2.2871e+10
-2.27336e+10
-2.27013e+10
-2.27705e+10
-2.28597e+10
-2.27671e+10
-2.22978e+10
-2.18441e+10
-2.31264e+10
-2.77814e+10
-3.06716e+10
-1.58129e+10
-2.90944e+10
-2.91042e+10
-2.91781e+10
-2.92158e+10
-2.92039e+10
-2.91893e+10
-2.91906e+10
-2.91905e+10
-2.91881e+10
-2.91874e+10
-2.91957e+10
-2.92196e+10
-2.92588e+10
-2.93031e+10
-2.93349e+10
-2.93377e+10
-2.93045e+10
-2.92373e+10
-2.91419e+10
-2.90323e+10
-2.89713e+10
-2.90007e+10
-2.87558e+10
-2.74327e+10
-2.56223e+10
-2.46307e+10
-2.42377e+10
-2.41054e+10
-2.41102e+10
-2.41546e+10
-2.4205e+10
-2.42484e+10
-2.42793e+10
-2.42927e+10
-2.4282e+10
-2.42391e+10
-2.41552e+10
-2.40237e+10
-2.38433e+10
-2.36207e+10
-2.33729e+10
-2.31276e+10
-2.29216e+10
-2.27936e+10
-2.27724e+10
-2.28528e+10
-2.29479e+10
-2.28451e+10
-2.23316e+10
-2.17839e+10
-2.29692e+10
-2.75965e+10
-3.04628e+10
-1.50755e+10
-2.89842e+10
-2.89453e+10
-2.90305e+10
-2.90625e+10
-2.90745e+10
-2.90821e+10
-2.90961e+10
-2.91137e+10
-2.91365e+10
-2.91689e+10
-2.92195e+10
-2.92979e+10
-2.94051e+10
-2.95246e+10
-2.962e+10
-2.96694e+10
-2.96727e+10
-2.96615e+10
-2.96805e+10
-2.96763e+10
-2.96948e+10
-2.99406e+10
-3.03729e+10
-2.90989e+10
-2.61033e+10
-2.35654e+10
-2.33841e+10
-2.35644e+10
-2.37684e+10
-2.39227e+10
-2.40335e+10
-2.41108e+10
-2.41617e+10
-2.41873e+10
-2.41841e+10
-2.41457e+10
-2.40648e+10
-2.39362e+10
-2.37596e+10
-2.35427e+10
-2.33033e+10
-2.30691e+10
-2.28763e+10
-2.27637e+10
-2.27614e+10
-2.28679e+10
-2.3007e+10
-2.2988e+10
-2.26267e+10
-2.22899e+10
-2.35438e+10
-2.78846e+10
-3.1102e+10
-1.62677e+10
-2.89677e+10
-2.89843e+10
-2.90574e+10
-2.90803e+10
-2.90844e+10
-2.90924e+10
-2.91064e+10
-2.91238e+10
-2.91462e+10
-2.91784e+10
-2.92284e+10
-2.9305e+10
-2.94091e+10
-2.95239e+10
-2.96188e+10
-2.96713e+10
-2.96825e+10
-2.96762e+10
-2.96703e+10
-2.96511e+10
-2.96861e+10
-3.0001e+10
-3.04755e+10
-2.92528e+10
-2.62221e+10
-2.35312e+10
-2.33792e+10
-2.35681e+10
-2.37749e+10
-2.39289e+10
-2.40391e+10
-2.4116e+10
-2.41666e+10
-2.41917e+10
-2.41883e+10
-2.41499e+10
-2.40691e+10
-2.39405e+10
-2.37639e+10
-2.35466e+10
-2.33059e+10
-2.30696e+10
-2.28737e+10
-2.27558e+10
-2.27433e+10
-2.28306e+10
-2.29335e+10
-2.28447e+10
-2.23524e+10
-2.18117e+10
-2.28927e+10
-2.74147e+10
-3.21031e+10
-2.23321e+10
-2.89877e+10
-2.90162e+10
-2.90549e+10
-2.90712e+10
-2.90803e+10
-2.90897e+10
-2.91001e+10
-2.91132e+10
-2.91319e+10
-2.91611e+10
-2.92105e+10
-2.92964e+10
-2.94221e+10
-2.95658e+10
-2.96737e+10
-2.97275e+10
-2.97376e+10
-2.97374e+10
-2.97669e+10
-2.9775e+10
-2.9816e+10
-3.01836e+10
-3.09249e+10
-3.12903e+10
-2.9145e+10
-2.06704e+10
-2.20486e+10
-2.29703e+10
-2.34913e+10
-2.3782e+10
-2.39612e+10
-2.40744e+10
-2.41452e+10
-2.41812e+10
-2.41819e+10
-2.4142e+10
-2.40546e+10
-2.3915e+10
-2.37234e+10
-2.34879e+10
-2.32271e+10
-2.297e+10
-2.27543e+10
-2.26196e+10
-2.25968e+10
-2.26867e+10
-2.2817e+10
-2.28e+10
-2.24315e+10
-2.20017e+10
-2.30145e+10
-2.73056e+10
-3.14379e+10
-1.98285e+10
-2.8982e+10
-2.90206e+10
-2.90474e+10
-2.90577e+10
-2.90633e+10
-2.9072e+10
-2.90821e+10
-2.90963e+10
-2.91173e+10
-2.915e+10
-2.92038e+10
-2.92908e+10
-2.94124e+10
-2.95463e+10
-2.96529e+10
-2.97099e+10
-2.97216e+10
-2.9721e+10
-2.97329e+10
-2.97433e+10
-2.98238e+10
-3.03203e+10
-3.10039e+10
-3.14315e+10
-2.98152e+10
-2.06209e+10
-2.20457e+10
-2.29768e+10
-2.34928e+10
-2.37786e+10
-2.39543e+10
-2.40647e+10
-2.41336e+10
-2.41692e+10
-2.41714e+10
-2.41348e+10
-2.40527e+10
-2.39204e+10
-2.37377e+10
-2.35124e+10
-2.32622e+10
-2.30156e+10
-2.28095e+10
-2.26822e+10
-2.26625e+10
-2.27477e+10
-2.28601e+10
-2.28004e+10
-2.23651e+10
-2.19718e+10
-2.35904e+10
-2.92138e+10
-3.24388e+10
-1.63507e+10
-2.89737e+10
-2.90265e+10
-2.90431e+10
-2.90623e+10
-2.9079e+10
-2.90956e+10
-2.91114e+10
-2.9129e+10
-2.91504e+10
-2.91801e+10
-2.92275e+10
-2.93117e+10
-2.94392e+10
-2.95787e+10
-2.96836e+10
-2.97267e+10
-2.97221e+10
-2.97215e+10
-2.9748e+10
-2.97804e+10
-2.98442e+10
-3.01135e+10
-3.11488e+10
-3.12485e+10
-1.82536e+10
-2.18929e+10
-2.28625e+10
-2.34247e+10
-2.37435e+10
-2.39405e+10
-2.40657e+10
-2.41455e+10
-2.41893e+10
-2.41975e+10
-2.41651e+10
-2.40855e+10
-2.39541e+10
-2.3771e+10
-2.35447e+10
-2.32944e+10
-2.30496e+10
-2.28476e+10
-2.27277e+10
-2.2721e+10
-2.28292e+10
-2.29811e+10
-2.2986e+10
-2.26105e+10
-2.20553e+10
-2.27304e+10
-2.66574e+10
-3.11718e+10
-1.99895e+10
-2.89795e+10
-2.90168e+10
-2.90275e+10
-2.90414e+10
-2.90563e+10
-2.90728e+10
-2.90891e+10
-2.91073e+10
-2.91301e+10
-2.91628e+10
-2.92154e+10
-2.93003e+10
-2.942e+10
-2.95533e+10
-2.9663e+10
-2.97223e+10
-2.973e+10
-2.97237e+10
-2.97228e+10
-2.97305e+10
-2.98155e+10
-3.02928e+10
-3.12215e+10
-3.13793e+10
-1.80782e+10
-2.19346e+10
-2.28838e+10
-2.34291e+10
-2.37395e+10
-2.39331e+10
-2.40572e+10
-2.41382e+10
-2.41853e+10
-2.41989e+10
-2.41745e+10
-2.41055e+10
-2.39868e+10
-2.38181e+10
-2.36073e+10
-2.33723e+10
-2.31415e+10
-2.2951e+10
-2.28388e+10
-2.28349e+10
-2.29391e+10
-2.30789e+10
-2.30628e+10
-2.26803e+10
-2.22762e+10
-2.36358e+10
-2.86413e+10
-3.21161e+10
-1.66995e+10
-2.89747e+10
-2.89844e+10
-2.89978e+10
-2.90135e+10
-2.90302e+10
-2.90466e+10
-2.9062e+10
-2.90772e+10
-2.90947e+10
-2.9119e+10
-2.9159e+10
-2.92277e+10
-2.93307e+10
-2.94505e+10
-2.95539e+10
-2.96127e+10
-2.96223e+10
-2.96226e+10
-2.96325e+10
-2.9655e+10
-2.97098e+10
-2.99483e+10
-3.04386e+10
-3.0388e+10
-2.58217e+10
-2.30335e+10
-2.30163e+10
-2.33513e+10
-2.36584e+10
-2.38745e+10
-2.40212e+10
-2.41212e+10
-2.41883e+10
-2.42271e+10
-2.42355e+10
-2.42075e+10
-2.41359e+10
-2.40154e+10
-2.3846e+10
-2.36364e+10
-2.34057e+10
-2.31834e+10
-2.30061e+10
-2.29127e+10
-2.29357e+10
-2.30798e+10
-2.32804e+10
-2.33572e+10
-2.30976e+10
-2.27541e+10
-2.38871e+10
-2.83663e+10
-3.175e+10
-1.66688e+10
-2.89817e+10
-2.89792e+10
-2.89925e+10
-2.90067e+10
-2.90239e+10
-2.90416e+10
-2.90595e+10
-2.90778e+10
-2.90982e+10
-2.91256e+10
-2.91681e+10
-2.92363e+10
-2.93338e+10
-2.94474e+10
-2.95517e+10
-2.96232e+10
-2.9655e+10
-2.96635e+10
-2.9652e+10
-2.96246e+10
-2.96769e+10
-3.00244e+10
-3.04022e+10
-3.01842e+10
-2.60165e+10
-2.31102e+10
-2.3052e+10
-2.33509e+10
-2.36421e+10
-2.38512e+10
-2.39952e+10
-2.40939e+10
-2.41612e+10
-2.42016e+10
-2.42133e+10
-2.41903e+10
-2.41252e+10
-2.40121e+10
-2.38503e+10
-2.36474e+10
-2.34212e+10
-2.31989e+10
-2.30149e+10
-2.29057e+10
-2.2901e+10
-2.30036e+10
-2.31479e+10
-2.3154e+10
-2.28162e+10
-2.24224e+10
-2.36009e+10
-2.83977e+10
-3.29236e+10
-1.97329e+10
-2.89707e+10
-2.8953e+10
-2.89632e+10
-2.89728e+10
-2.89851e+10
-2.89971e+10
-2.90077e+10
-2.90158e+10
-2.90225e+10
-2.90307e+10
-2.90455e+10
-2.90728e+10
-2.91139e+10
-2.91608e+10
-2.91987e+10
-2.92124e+10
-2.91925e+10
-2.91404e+10
-2.90597e+10
-2.89678e+10
-2.8925e+10
-2.89715e+10
-2.87571e+10
-2.74423e+10
-2.56626e+10
-2.45742e+10
-2.41626e+10
-2.40387e+10
-2.40572e+10
-2.41112e+10
-2.41694e+10
-2.42199e+10
-2.42589e+10
-2.42817e+10
-2.42817e+10
-2.425e+10
-2.41775e+10
-2.40575e+10
-2.38889e+10
-2.36797e+10
-2.34483e+10
-2.32227e+10
-2.30381e+10
-2.29323e+10
-2.29382e+10
-2.30634e+10
-2.32505e+10
-2.33339e+10
-2.3125e+10
-2.28997e+10
-2.41613e+10
-2.87343e+10
-3.26811e+10
-1.79307e+10
-2.89699e+10
-2.89526e+10
-2.89626e+10
-2.89726e+10
-2.89855e+10
-2.89984e+10
-2.90105e+10
-2.90206e+10
-2.90291e+10
-2.90386e+10
-2.90537e+10
-2.90795e+10
-2.91176e+10
-2.91612e+10
-2.91972e+10
-2.92114e+10
-2.91953e+10
-2.9147e+10
-2.90647e+10
-2.89666e+10
-2.89286e+10
-2.89908e+10
-2.87501e+10
-2.74383e+10
-2.56297e+10
-2.45473e+10
-2.41348e+10
-2.40163e+10
-2.40434e+10
-2.4106e+10
-2.41711e+10
-2.42266e+10
-2.42692e+10
-2.42947e+10
-2.42969e+10
-2.42671e+10
-2.41961e+10
-2.40769e+10
-2.39083e+10
-2.36975e+10
-2.34618e+10
-2.32275e+10
-2.30275e+10
-2.28968e+10
-2.28642e+10
-2.29334e+10
-2.30433e+10
-2.30237e+10
-2.26724e+10
-2.22226e+10
-2.31765e+10
-2.79523e+10
-3.43415e+10
-2.42636e+10
-2.89434e+10
-2.89285e+10
-2.89357e+10
-2.89437e+10
-2.89555e+10
-2.8968e+10
-2.898e+10
-2.899e+10
-2.89979e+10
-2.9005e+10
-2.90137e+10
-2.90255e+10
-2.90395e+10
-2.90508e+10
-2.90519e+10
-2.90344e+10
-2.89897e+10
-2.89098e+10
-2.87903e+10
-2.86437e+10
-2.84973e+10
-2.83056e+10
-2.78349e+10
-2.68962e+10
-2.58438e+10
-2.51111e+10
-2.46776e+10
-2.44362e+10
-2.43243e+10
-2.42825e+10
-2.42771e+10
-2.42877e+10
-2.4302e+10
-2.431e+10
-2.43014e+10
-2.42652e+10
-2.41906e+10
-2.40696e+10
-2.39005e+10
-2.36905e+10
-2.34575e+10
-2.32288e+10
-2.30381e+10
-2.29211e+10
-2.29085e+10
-2.30079e+10
-2.31658e+10
-2.32257e+10
-2.30072e+10
-2.27711e+10
-2.39743e+10
-2.84838e+10
-3.27296e+10
-1.92888e+10
-2.8949e+10
-2.8934e+10
-2.89424e+10
-2.89515e+10
-2.89647e+10
-2.89786e+10
-2.89922e+10
-2.90042e+10
-2.90143e+10
-2.90235e+10
-2.90338e+10
-2.9047e+10
-2.90623e+10
-2.90752e+10
-2.90782e+10
-2.90622e+10
-2.90188e+10
-2.89398e+10
-2.8821e+10
-2.86774e+10
-2.85379e+10
-2.83484e+10
-2.78684e+10
-2.6907e+10
-2.58326e+10
-2.50953e+10
-2.46706e+10
-2.44425e+10
-2.43425e+10
-2.43104e+10
-2.43123e+10
-2.4328e+10
-2.43452e+10
-2.43542e+10
-2.43448e+10
-2.43057e+10
-2.42261e+10
-2.40983e+10
-2.39206e+10
-2.37005e+10
-2.34556e+10
-2.32129e+10
-2.30052e+10
-2.28664e+10
-2.28236e+10
-2.28794e+10
-2.29728e+10
-2.29345e+10
-2.25493e+10
-2.19775e+10
-2.25912e+10
-2.7133e+10
-3.45568e+10
-2.67307e+10
-2.89034e+10
-2.88917e+10
-2.88933e+10
-2.88971e+10
-2.89042e+10
-2.8912e+10
-2.89192e+10
-2.89244e+10
-2.8927e+10
-2.89276e+10
-2.89274e+10
-2.89261e+10
-2.89218e+10
-2.89112e+10
-2.88899e+10
-2.88518e+10
-2.87896e+10
-2.86956e+10
-2.85665e+10
-2.84064e+10
-2.82109e+10
-2.7921e+10
-2.7421e+10
-2.67017e+10
-2.5954e+10
-2.53583e+10
-2.49391e+10
-2.46656e+10
-2.45001e+10
-2.44075e+10
-2.4361e+10
-2.43414e+10
-2.43346e+10
-2.43283e+10
-2.43101e+10
-2.42676e+10
-2.41886e+10
-2.40648e+10
-2.38941e+10
-2.36845e+10
-2.34546e+10
-2.32322e+10
-2.30513e+10
-2.29465e+10
-2.29463e+10
-2.30566e+10
-2.32216e+10
-2.32798e+10
-2.30396e+10
-2.27418e+10
-2.37982e+10
-2.79907e+10
-3.17301e+10
-1.75683e+10
-2.89061e+10
-2.8892e+10
-2.88937e+10
-2.88972e+10
-2.8904e+10
-2.89113e+10
-2.8918e+10
-2.89228e+10
-2.89252e+10
-2.89256e+10
-2.89249e+10
-2.89233e+10
-2.89193e+10
-2.89097e+10
-2.88896e+10
-2.88527e+10
-2.87918e+10
-2.87e+10
-2.85744e+10
-2.84204e+10
-2.82332e+10
-2.79502e+10
-2.7451e+10
-2.67293e+10
-2.59765e+10
-2.53803e+10
-2.49646e+10
-2.46968e+10
-2.45369e+10
-2.44492e+10
-2.44069e+10
-2.43903e+10
-2.4385e+10
-2.43781e+10
-2.43572e+10
-2.43095e+10
-2.42231e+10
-2.409e+10
-2.3909e+10
-2.36886e+10
-2.34481e+10
-2.32164e+10
-2.30282e+10
-2.2918e+10
-2.29124e+10
-2.30127e+10
-2.3155e+10
-2.31617e+10
-2.28016e+10
-2.2232e+10
-2.28701e+10
-2.71999e+10
-3.29911e+10
-2.18753e+10
-2.88779e+10
-2.88653e+10
-2.88668e+10
-2.88693e+10
-2.8875e+10
-2.88809e+10
-2.88858e+10
-2.88881e+10
-2.88869e+10
-2.88822e+10
-2.88744e+10
-2.88627e+10
-2.88446e+10
-2.88174e+10
-2.87776e+10
-2.87208e+10
-2.86407e+10
-2.85312e+10
-2.83891e+10
-2.82132e+10
-2.79884e+10
-2.76691e+10
-2.72081e+10
-2.66317e+10
-2.60449e+10
-2.554e+10
-2.51476e+10
-2.48639e+10
-2.46701e+10
-2.45441e+10
-2.44659e+10
-2.44189e+10
-2.43891e+10
-2.43632e+10
-2.43277e+10
-2.42687e+10
-2.41734e+10
-2.40326e+10
-2.38445e+10
-2.36174e+10
-2.3371e+10
-2.3134e+10
-2.29406e+10
-2.28253e+10
-2.2816e+10
-2.29154e+10
-2.30604e+10
-2.30726e+10
-2.27383e+10
-2.23029e+10
-2.32268e+10
-2.72515e+10
-3.06224e+10
-1.6617e+10
-2.8882e+10
-2.88657e+10
-2.88672e+10
-2.88693e+10
-2.88742e+10
-2.8879e+10
-2.88826e+10
-2.88834e+10
-2.88807e+10
-2.88744e+10
-2.88648e+10
-2.88515e+10
-2.88326e+10
-2.88052e+10
-2.87659e+10
-2.87096e+10
-2.86305e+10
-2.85227e+10
-2.83838e+10
-2.82127e+10
-2.7994e+10
-2.76796e+10
-2.7222e+10
-2.66457e+10
-2.606e+10
-2.55567e+10
-2.51669e+10
-2.48862e+10
-2.46945e+10
-2.45697e+10
-2.44918e+10
-2.44441e+10
-2.44125e+10
-2.43836e+10
-2.43434e+10
-2.42781e+10
-2.41749e+10
-2.40254e+10
-2.38281e+10
-2.35922e+10
-2.33381e+10
-2.30959e+10
-2.29008e+10
-2.27876e+10
-2.2783e+10
-2.28869e+10
-2.30301e+10