/*--------------------------------*- C++ -*----------------------------------*\
| =========                 |                                                 |
| \\      /  F ield         | OpenFOAM: The Open Source CFD Toolbox           |
|  \\    /   O peration     | Version:  4.1                                   |
|   \\  /    A nd           | Web:      www.OpenFOAM.org                      |
|    \\/     M anipulation  |                                                 |
\*---------------------------------------------------------------------------*/
FoamFile
{
    version     2.0;
    format      ascii;
    class       volVectorField;
    location    "62";
    object      U;
}
// * * * * * * * * * * * * * * * * * * * * * * * * * * * * * * * * * * * * * //

dimensions      [0 1 -1 0 0 0 0];

internalField   nonuniform List<vector> 
4432
(
(-153192 -3738.65 -1685.95)
(-159887 -3647.31 -1999.75)
(-160316 -3224.84 -1549.81)
(-161405 -3666.73 -2343.76)
(-163040 -3649.26 -2531.6)
(-164384 -3644.58 -2526.31)
(-165356 -3696.28 -2696.65)
(-166330 -3714.76 -2796.04)
(-167222 -3740.41 -2905.59)
(-168031 -3775.38 -3029.5)
(-168723 -3819.46 -3170)
(-169269 -3866.05 -3338.5)
(-169641 -3912.97 -3534.43)
(-169820 -3960.05 -3748.22)
(-169797 -4008.75 -3978.88)
(-169527 -4060.96 -4241.19)
(-168962 -4115.15 -4528.33)
(-168082 -4173.93 -4835.63)
(-166871 -4237.38 -5155.15)
(-165319 -4305.37 -5481.38)
(-163411 -4375.37 -5801.88)
(-161149 -4449.13 -6109.42)
(-158556 -4524.61 -6390.31)
(-155665 -4602.37 -6636.87)
(-152531 -4681.26 -6842.3)
(-149202 -4760.31 -7005.87)
(-145732 -4838.02 -7128.15)
(-142158 -4913.39 -7212.81)
(-138525 -4985.3 -7263.5)
(-134859 -5053.1 -7285.45)
(-131191 -5116.29 -7284.36)
(-127544 -5174.43 -7266.06)
(-123932 -5227.36 -7238.82)
(-120381 -5275.45 -7208.06)
(-116904 -5320.03 -7179.87)
(-113523 -5362.72 -7158.35)
(-110264 -5404.26 -7147.89)
(-107152 -5441.03 -7154.22)
(-104233 -5466.09 -7170.42)
(-101554 -5474.02 -7165.56)
(-99185.2 -5458.61 -7102.79)
(-97198.2 -5411.56 -6940.42)
(-95663.8 -5331.8 -6641.58)
(-94452.9 -5215.65 -6211.39)
(-93810.9 -5025.17 -5546.95)
(-94324.4 -4726.59 -4547.17)
(-96226.4 -4289.9 -3199.23)
(-97649.5 -3616.44 -1330.15)
(-94963.7 -2371.79 1694.54)
(-91513.6 289.591 8016.45)
(-107444 7248.55 15135.4)
(-153765 13946.8 20429.5)
(-178723 18706.7 -273.778)
(-52484.1 8537.35 -8869.7)
(-206784 3619.22 -341.944)
(-209108 3781.48 -890.316)
(-209600 4146.33 -1035.03)
(-209964 3857.5 -1231.27)
(-210333 3907.51 -1438.21)
(-210774 3953.82 -1465.18)
(-210939 3957.6 -1589.79)
(-211079 3986.17 -1674.66)
(-211203 4010.9 -1773.32)
(-211277 4029 -1876.02)
(-211270 4040.53 -1992.84)
(-211168 4051.82 -2133.63)
(-210960 4064.66 -2299.02)
(-210630 4079.26 -2480.56)
(-210156 4096.43 -2675.98)
(-209493 4116.83 -2891.19)
(-208607 4141.55 -3124.13)
(-207485 4169.82 -3366.39)
(-206113 4202.68 -3613.89)
(-204481 4240.34 -3857.64)
(-202581 4285.5 -4090.67)
(-200420 4336.95 -4303.21)
(-198020 4395.79 -4485.54)
(-195413 4461.6 -4630.33)
(-192649 4534.05 -4732.54)
(-189773 4613.64 -4791.47)
(-186836 4699.82 -4808.15)
(-183875 4792.8 -4785.82)
(-180933 4891.23 -4728.28)
(-178036 4994.44 -4640.44)
(-175215 5100.65 -4527.49)
(-172489 5208 -4394.78)
(-169869 5314.69 -4247.38)
(-167375 5417.3 -4090.03)
(-165007 5512.29 -3927.48)
(-162771 5596.59 -3766.08)
(-160662 5668.86 -3610.69)
(-158664 5729.54 -3461.43)
(-156764 5776.87 -3310.48)
(-154934 5808.22 -3145.89)
(-153153 5821.05 -2951.21)
(-151381 5813.17 -2710.03)
(-149555 5776.58 -2403.29)
(-147628 5718.68 -1995.86)
(-145686 5659.46 -1434.23)
(-144013 5619.59 -674.915)
(-142742 5613.32 287.128)
(-140674 5696.24 1483.04)
(-135255 6098.76 3239.29)
(-127552 7316.69 6741.59)
(-133800 10185.9 9664.01)
(-161809 11713.2 9260.19)
(-194811 5815.31 1687.48)
(1856.29 6812.54 -20971.7)
(-272495 -1636.56 5553.87)
(-273478 -1772.26 4708.65)
(-274111 -1869.02 4957.96)
(-274602 -1785.98 4426.94)
(-274864 -1807.64 4233.35)
(-275355 -1808.89 4255.03)
(-275726 -1814.08 4229.46)
(-276021 -1811.53 4222.54)
(-276322 -1816.97 4197.33)
(-276593 -1822.36 4155.32)
(-276822 -1834.29 4088.23)
(-276997 -1848.78 3983.7)
(-277095 -1865.37 3840.22)
(-277111 -1883.45 3664.02)
(-277043 -1904.1 3469.78)
(-276927 -1924.66 3264.55)
(-276747 -1946.81 3041.91)
(-276495 -1968.57 2804.03)
(-276172 -1992.08 2561.01)
(-275782 -2014.09 2324.01)
(-275329 -2035.69 2107.12)
(-274820 -2055.13 1921.79)
(-274270 -2072.3 1784.14)
(-273701 -2086.73 1703.97)
(-273144 -2097.79 1688.56)
(-272617 -2104.73 1737.62)
(-272146 -2106.76 1849.04)
(-271735 -2103.36 2017.1)
(-271398 -2094.18 2236.9)
(-271136 -2079.35 2501.66)
(-270959 -2058.9 2806.28)
(-270871 -2033.05 3146.66)
(-270881 -2001.01 3521.04)
(-271000 -1962.82 3927.71)
(-271238 -1918.54 4363.81)
(-271618 -1869.81 4828.9)
(-272166 -1816.13 5323.04)
(-272917 -1751.88 5849.57)
(-273941 -1671.83 6419.97)
(-275298 -1577.55 7042.93)
(-277021 -1468.77 7717.52)
(-279146 -1345.27 8448.01)
(-281640 -1198.16 9254.38)
(-284692 -1008.55 10193.7)
(-288514 -764.65 11308.9)
(-293507 -447.161 12595.1)
(-299950 -17.4776 13989.7)
(-307688 572.214 15434.7)
(-314932 1524.88 17295.5)
(-324487 3185.63 20054.1)
(-341878 5088.06 22331.8)
(-405035 5851.13 16242.1)
(-453296 4551.86 -161.27)
(-443891 14284 -15784.7)
(-308452 1877.36 3406.61)
(-309317 1702.24 2542.1)
(-309862 1599.79 2369.76)
(-310388 1659.34 2260.72)
(-310938 1634.7 2086.77)
(-311642 1629.4 2102.52)
(-312273 1621.75 2106.74)
(-312872 1623.36 2120.07)
(-313506 1618.75 2111.73)
(-314140 1616.05 2094.25)
(-314765 1609.64 2056.04)
(-315357 1602.85 1986.77)
(-315902 1596.15 1883.35)
(-316399 1590.72 1751.46)
(-316858 1584.43 1597.68)
(-317283 1577.77 1420.65)
(-317650 1569.7 1219.92)
(-317964 1561.89 1001.06)
(-318221 1552.52 770.654)
(-318420 1544.55 539.728)
(-318562 1537.2 317.349)
(-318648 1532.28 116.392)
(-318685 1530.17 -51.2285)
(-318686 1531.72 -176.55)
(-318670 1537.73 -254.563)
(-318643 1549.52 -286.193)
(-318617 1567.95 -274.606)
(-318586 1594.13 -225.798)
(-318551 1628.53 -145.189)
(-318497 1671.6 -39.3611)
(-318420 1723.48 86.6925)
(-318307 1784.35 228.997)
(-318147 1855.15 385.816)
(-317931 1935.89 555.035)
(-317645 2026.7 733.474)
(-317287 2126.11 921.554)
(-316863 2233.67 1123.72)
(-316385 2352.51 1341.58)
(-315851 2487.06 1574.96)
(-315259 2637.73 1826.37)
(-314612 2805.29 2103.98)
(-313920 2989.41 2420.35)
(-313185 3197.29 2791.11)
(-312436 3431.82 3236.98)
(-311759 3687.66 3790.23)
(-311430 3957.95 4470.65)
(-311636 4243.37 5279.94)
(-311875 4518.17 6272.75)
(-310459 4949.07 7784.68)
(-308145 5545.3 9869.39)
(-308483 6242.32 11422.3)
(-331258 -2229.56 14855.9)
(-327459 1226.05 9530.69)
(-298870 -3641.64 7866.47)
(-232517 -1461.84 1209.28)
(-230961 -1505 -47.9884)
(-230907 -1744.75 -417.713)
(-230784 -1573.74 -543.329)
(-230551 -1586.74 -856.331)
(-230512 -1611.14 -1042.54)
(-230501 -1637.15 -1149.9)
(-230518 -1654.24 -1271.05)
(-230550 -1686.03 -1411.57)
(-230572 -1719.43 -1572.04)
(-230572 -1759.52 -1769.37)
(-230539 -1801.65 -2010.69)
(-230444 -1847.61 -2299.95)
(-230288 -1898.31 -2637.07)
(-230073 -1956.27 -3018.56)
(-229711 -2021.29 -3439.4)
(-229166 -2086.16 -3903.32)
(-228424 -2147.74 -4401.19)
(-227475 -2207.45 -4925.56)
(-226310 -2262.43 -5455.57)
(-224933 -2314.35 -5976.73)
(-223351 -2360.19 -6465.49)
(-221586 -2401.45 -6902.17)
(-219687 -2438.14 -7270.44)
(-217705 -2471.36 -7562.72)
(-215693 -2501.43 -7782.38)
(-213690 -2528.82 -7937.45)
(-211724 -2553.91 -8041.05)
(-209813 -2576.95 -8104.83)
(-207964 -2597.81 -8142.11)
(-206176 -2615.95 -8161.7)
(-204434 -2631.06 -8167.87)
(-202727 -2642.62 -8156.48)
(-201033 -2651.59 -8125.06)
(-199326 -2660.18 -8071.09)
(-197578 -2667.97 -7986.68)
(-195753 -2671.48 -7864.43)
(-193827 -2675.01 -7700.11)
(-191748 -2685.62 -7490.48)
(-189449 -2703.88 -7236.74)
(-186891 -2720.58 -6930.49)
(-184053 -2728.05 -6556.08)
(-180881 -2719.2 -6084.74)
(-177323 -2681.46 -5504.77)
(-173475 -2580.07 -4830.39)
(-169700 -2344.91 -4118.64)
(-166365 -1870.44 -3458.52)
(-162051 -988.564 -3054.52)
(-153722 736.897 -2791.7)
(-143251 3531.65 -2382.37)
(-149603 9557.95 -212.079)
(-193050 16603.8 3253.94)
(-219732 30685.8 -2488.97)
(-82745.1 11484.7 -6150.88)
(-251913 3623.08 1719.2)
(-251574 3641.8 860.491)
(-251499 3453.15 684.349)
(-251538 3648.21 610.412)
(-251766 3674.71 412.391)
(-252029 3688.9 279.514)
(-252296 3703.57 238.897)
(-252591 3728.05 172.506)
(-252908 3740.59 87.8549)
(-253219 3752.33 -16.0854)
(-253531 3758.21 -151.485)
(-253838 3761.74 -326.398)
(-254121 3760.63 -547.609)
(-254384 3753.09 -820.377)
(-254631 3736.57 -1140.18)
(-254829 3711.58 -1498.81)
(-254955 3684.19 -1894.74)
(-254992 3656.94 -2327.48)
(-254927 3628.4 -2786.81)
(-254719 3602.09 -3256.98)
(-254372 3576.67 -3716.12)
(-253891 3555.17 -4143.03)
(-253295 3536.91 -4516.7)
(-252622 3522.63 -4820.68)
(-251916 3512.22 -5046.91)
(-251214 3506.28 -5197.5)
(-250547 3505.09 -5279.68)
(-249934 3508.95 -5305.82)
(-249383 3518.05 -5287.7)
(-248891 3532.74 -5238.17)
(-248447 3553.33 -5167.63)
(-248028 3579.89 -5085.24)
(-247605 3612.77 -4998.92)
(-247130 3650.05 -4909.03)
(-246565 3688.17 -4807.44)
(-245885 3727.39 -4693.47)
(-245029 3771.44 -4572.24)
(-243939 3814.79 -4444.87)
(-242573 3848.59 -4309.44)
(-240908 3869.92 -4162.32)
(-238910 3882.18 -4000.44)
(-236518 3886.06 -3818.28)
(-233622 3880.93 -3605.76)
(-230132 3872.31 -3355.69)
(-226052 3878.89 -3067.75)
(-221528 3939.39 -2755.77)
(-216556 4110.63 -2445.27)
(-209857 4479.93 -2062.08)
(-199383 5224.12 -1353.03)
(-185834 6364.8 -340.503)
(-185603 8365.87 1998.47)
(-200811 8943.28 7313.98)
(-214091 6587.03 7171.68)
(26030.2 8726.66 -4518.89)
(-257726 -2784.57 2265.51)
(-258669 -2865.81 2077.41)
(-258948 -2913.99 1776.23)
(-259500 -2910.37 1816.49)
(-260044 -2960.12 1702.79)
(-260511 -3033.25 1595.8)
(-260951 -3090.4 1484.57)
(-261364 -3150 1363.33)
(-261748 -3216.25 1214.99)
(-262089 -3281.19 1028.83)
(-262380 -3348.54 796.985)
(-262604 -3414.28 523.161)
(-262742 -3479.23 200.453)
(-262791 -3545.82 -177.779)
(-262748 -3613.86 -616.208)
(-262594 -3683.69 -1103.34)
(-262308 -3751.83 -1624.82)
(-261882 -3821.13 -2164.26)
(-261307 -3889.69 -2706.71)
(-260581 -3954.81 -3230.4)
(-259709 -4009.82 -3711.3)
(-258703 -4053.1 -4116.86)
(-257594 -4082.1 -4419.06)
(-256434 -4096.01 -4593.79)
(-255286 -4094.78 -4632.55)
(-254211 -4079 -4540.53)
(-253257 -4050.14 -4333.51)
(-252460 -4010.59 -4032.65)
(-251846 -3963.43 -3659.75)
(-251434 -3911.38 -3235.08)
(-251232 -3857.73 -2773.95)
(-251240 -3808.45 -2287.41)
(-251464 -3771.05 -1780.43)
(-251908 -3743.96 -1255.67)
(-252568 -3722.64 -711.927)
(-253445 -3714.36 -144.738)
(-254546 -3724.45 452.058)
(-255881 -3755.58 1087.2)
(-257464 -3813.84 1772.53)
(-259321 -3903.88 2524.59)
(-261483 -4035.03 3371.35)
(-263973 -4215.39 4344.41)
(-266816 -4450.94 5480.96)
(-270077 -4749.59 6825.86)
(-273957 -5114.63 8439.08)
(-278910 -5529.06 10415.8)
(-285281 -5952.03 12837.6)
(-292331 -6254.5 15803.4)
(-297958 -6261.3 19439)
(-303708 -6177.03 24083.5)
(-321068 -5183.6 29987.7)
(-379091 -3894.2 36103.7)
(-397215 9657.61 5542.17)
(-412503 41024.6 -32742.4)
(-262625 3204.38 4608.67)
(-262916 3197.98 4511.37)
(-263191 3195.97 4510)
(-263671 3250.06 4514.25)
(-264311 3254.13 4498.65)
(-264870 3232.12 4487.5)
(-265432 3224.6 4473.51)
(-266046 3214.52 4439.35)
(-266685 3196.91 4393.68)
(-267323 3179.47 4313.96)
(-267955 3158.65 4190.94)
(-268554 3138.16 4022.65)
(-269095 3117.06 3802.18)
(-269561 3092.81 3519.86)
(-269939 3065.5 3172.47)
(-270205 3035.31 2770.71)
(-270336 3007.12 2324.79)
(-270333 2977.89 1848.5)
(-270230 2949.14 1358.82)
(-270085 2924.36 875.75)
(-269887 2910.01 421.452)
(-269645 2906.51 22.3963)
(-269372 2915.47 -296.338)
(-269096 2936.86 -516.68)
(-268845 2970.04 -633.144)
(-268642 3013.89 -653.362)
(-268495 3066.17 -593.98)
(-268402 3123.98 -475.886)
(-268355 3184.28 -319.043)
(-268344 3244.45 -141.26)
(-268359 3301.4 43.8577)
(-268389 3349.72 226.81)
(-268431 3383.83 401.672)
(-268496 3406.98 568.445)
(-268571 3423.63 729.639)
(-268622 3426.17 880.884)
(-268664 3409.82 1034.45)
(-268677 3370.39 1195.28)
(-268660 3300.43 1372.35)
(-268587 3194.29 1572.34)
(-268430 3040.85 1805.16)
(-268157 2828.37 2084.02)
(-267743 2546.71 2426.3)
(-267156 2185.2 2850.95)
(-266526 1735.38 3403.7)
(-266159 1200.39 4131.77)
(-266190 602.405 5081.71)
(-265712 20.9585 6310.79)
(-262270 -392.508 7508.22)
(-256375 -978.514 8585.76)
(-259468 -1056.2 10195.1)
(-280483 -7635.72 15615.5)
(-240973 5851.39 -11745.9)
(-124133 -805.983 -15919.3)
(-242519 -2662.77 277.501)
(-243212 -2843.74 119.259)
(-243449 -2902.71 -25.1902)
(-243878 -2940.91 -126.897)
(-244349 -3017.08 -189.882)
(-244806 -3101.68 -243.668)
(-245265 -3186.27 -303.111)
(-245721 -3272.66 -386.113)
(-246177 -3353.84 -494.665)
(-246611 -3428.7 -652.66)
(-247009 -3502.07 -872.904)
(-247364 -3575.62 -1147.61)
(-247656 -3647.99 -1490.07)
(-247870 -3720.09 -1913.14)
(-247994 -3791 -2419.93)
(-248006 -3864.4 -3012.56)
(-247883 -3938.14 -3682.81)
(-247606 -4011.04 -4419.37)
(-247161 -4086.17 -5198.14)
(-246531 -4170.89 -5998.62)
(-245699 -4264.83 -6786.96)
(-244659 -4368.15 -7524.98)
(-243425 -4479.64 -8165.79)
(-242039 -4597.77 -8670.7)
(-240565 -4718.09 -9020.83)
(-239062 -4835.1 -9219.53)
(-237579 -4942.85 -9287.03)
(-236152 -5035.58 -9251.02)
(-234805 -5108.15 -9140.4)
(-233559 -5156.72 -8979.48)
(-232423 -5179.45 -8786.7)
(-231403 -5176.48 -8576.45)
(-230504 -5148.73 -8360.1)
(-229734 -5096 -8141.09)
(-229096 -5017.99 -7918.71)
(-228593 -4914.3 -7695.35)
(-228226 -4788.09 -7473.59)
(-228003 -4644.22 -7255.18)
(-227915 -4489.44 -7048.16)
(-227956 -4328.32 -6856.31)
(-228136 -4163.76 -6679.36)
(-228450 -4000.09 -6517.51)
(-228877 -3839.46 -6371.2)
(-229417 -3682.25 -6229.34)
(-230221 -3534.78 -6071.78)
(-231700 -3405.79 -5852.36)
(-234165 -3278.13 -5443.06)
(-236891 -3175.16 -4662.21)
(-237685 -3093.13 -3170.46)
(-237451 -3220.8 -569.555)
(-254989 -4343.23 3125.87)
(-324011 -7867.98 6294.14)
(-375476 11116.6 38621.7)
(-489887 -16538.5 66578.5)
(-229291 2486.76 2327.95)
(-228440 2393.09 2207.73)
(-228141 2395.63 2085.32)
(-227933 2421.4 1962.56)
(-227909 2407.31 1919.05)
(-227857 2380.4 1920.35)
(-227836 2350.47 1895.01)
(-227844 2315.87 1833.27)
(-227883 2285.2 1744.67)
(-227943 2259.39 1601.17)
(-228014 2233.1 1395.33)
(-228081 2204.95 1124.83)
(-228139 2177.1 780.951)
(-228190 2148.98 354.934)
(-228228 2122.7 -153.407)
(-228234 2100.38 -737.885)
(-228192 2088.69 -1395.57)
(-228034 2085.95 -2110.47)
(-227687 2084.19 -2858.97)
(-227097 2074.31 -3619.6)
(-226261 2057.37 -4359.16)
(-225176 2032.78 -5034.37)
(-223874 2001.53 -5597.68)
(-222424 1964.44 -6010.71)
(-220910 1925.36 -6257.75)
(-219417 1889.56 -6348.27)
(-218004 1862.81 -6310.21)
(-216713 1849.35 -6180.83)
(-215562 1852.98 -5998.34)
(-214556 1876.81 -5796.52)
(-213686 1921.72 -5601.46)
(-212930 1986.77 -5432.13)
(-212260 2070.8 -5300.77)
(-211639 2174.41 -5220.32)
(-211033 2296.71 -5197.2)
(-210422 2434.39 -5239.7)
(-209741 2584.4 -5349.41)
(-208980 2742.4 -5522.31)
(-208116 2902.32 -5751.34)
(-207146 3060.36 -6024.68)
(-206076 3213.85 -6320.06)
(-204892 3358.79 -6608.44)
(-203568 3491.23 -6850.98)
(-202087 3603.68 -7018.19)
(-200512 3688.16 -7085.13)
(-199157 3729.41 -7009.34)
(-198191 3741.65 -6682.91)
(-196265 3724.42 -6046.73)
(-190566 3649.51 -5092.35)
(-182437 3502.43 -4105.5)
(-189638 1876.73 -606.42)
(-230385 -5466.71 14120.2)
(-289228 8525.92 57447.7)
(-244972 -17205.2 27841.3)
(-235468 -1422.3 2722.51)
(-235311 -1461.76 2877.02)
(-235376 -1474 2891.64)
(-235489 -1470.26 2922.23)
(-235710 -1480.29 2968.47)
(-235954 -1477.8 2995.46)
(-236239 -1471.87 3006)
(-236562 -1472.75 2989.6)
(-236932 -1473.7 2938.68)
(-237332 -1467.32 2829.23)
(-237725 -1450.78 2645.13)
(-238090 -1431.01 2374.94)
(-238426 -1407.62 2009.31)
(-238728 -1381.52 1541.45)
(-238987 -1354.89 973.478)
(-239186 -1325.78 318.366)
(-239309 -1297.32 -410.903)
(-239344 -1270.2 -1196.95)
(-239287 -1244.55 -2009.27)
(-239142 -1219.3 -2816.76)
(-238908 -1196.29 -3581.73)
(-238592 -1177.7 -4256.63)
(-238229 -1169.31 -4778.57)
(-237883 -1176.6 -5097.58)
(-237628 -1203.43 -5194.84)
(-237514 -1251.01 -5090.49)
(-237553 -1318.11 -4828.16)
(-237725 -1402.48 -4460.65)
(-237997 -1500.73 -4037.25)
(-238326 -1609.17 -3597.66)
(-238672 -1724.82 -3170.87)
(-238997 -1845.82 -2778.06)
(-239271 -1969.03 -2434.54)
(-239467 -2092.07 -2146.9)
(-239564 -2213.94 -1915.28)
(-239548 -2333.77 -1739.02)
(-239407 -2450.99 -1616.55)
(-239127 -2563.08 -1544.3)
(-238711 -2662.97 -1513.82)
(-238166 -2749.55 -1512.39)
(-237474 -2826.59 -1535.58)
(-236586 -2894.63 -1588.27)
(-235433 -2947.59 -1676.5)
(-233964 -2976.04 -1803.66)
(-232224 -2970.78 -1975.34)
(-230391 -2914.9 -2197.4)
(-228531 -2796.45 -2451.39)
(-225340 -2601.26 -2695.66)
(-218329 -2389.63 -2757.37)
(-206536 -2261.33 -3068.75)
(-200974 -1647.73 -2215.9)
(-211305 1382.63 5861.33)
(-257439 23933.9 63832.1)
(-173103 17462.9 13533)
(-242589 3942.07 3556.06)
(-242679 3920.24 3758.14)
(-242972 3933.63 3716.06)
(-243385 3965.83 3668.04)
(-243939 3985.91 3668.99)
(-244535 4020.41 3674.64)
(-245220 4060.6 3660.6)
(-245968 4096.61 3609.56)
(-246772 4134.6 3508.57)
(-247611 4181.58 3342.13)
(-248450 4240.12 3098.17)
(-249254 4302.96 2763.1)
(-249994 4369.57 2324.67)
(-250636 4438.11 1775.23)
(-251139 4505.76 1117.05)
(-251457 4569.95 356.157)
(-251554 4625.51 -504.512)
(-251441 4674.05 -1447.31)
(-251124 4717.38 -2437.52)
(-250608 4754.16 -3442.22)
(-249889 4782.9 -4428.97)
(-248957 4804.33 -5346.39)
(-247840 4814.93 -6127.43)
(-246607 4811.71 -6713.31)
(-245346 4793.24 -7077.77)
(-244141 4760.31 -7231.96)
(-243048 4715.46 -7213.85)
(-242097 4661.66 -7071.89)
(-241298 4602.57 -6853.79)
(-240652 4541.39 -6599.13)
(-240148 4480.37 -6336.12)
(-239772 4420.74 -6085.36)
(-239505 4364.59 -5860.72)
(-239334 4312.85 -5667.1)
(-239244 4264.88 -5502.55)
(-239222 4219.99 -5364.33)
(-239262 4177.32 -5246.54)
(-239356 4136.6 -5140.18)
(-239492 4099.5 -5037.34)
(-239646 4064.41 -4930.49)
(-239778 4028.25 -4809.4)
(-239836 3988.59 -4666.46)
(-239739 3947.72 -4493.23)
(-239410 3910.2 -4285.46)
(-238875 3878.06 -4041.18)
(-238313 3855.67 -3743.61)
(-237716 3838.69 -3370.85)
(-235773 3808.24 -2950.98)
(-230052 3645.13 -2603.32)
(-220414 3038.88 -2708.01)
(-217949 1873.41 -1581.44)
(-223837 517.897 4751.39)
(-205027 14575.5 59167.9)
(-31532.1 11868.2 36497.8)
(-227704 -3573.27 -2002.66)
(-226812 -3508.98 -1685.94)
(-226423 -3485.78 -1580.2)
(-226031 -3465.03 -1472.07)
(-225758 -3437.19 -1375.1)
(-225538 -3394.74 -1298.14)
(-225363 -3353.52 -1244)
(-225237 -3322.33 -1225.34)
(-225174 -3299.43 -1263.16)
(-225153 -3275.26 -1369.15)
(-225137 -3251.06 -1546.4)
(-225101 -3230.08 -1819.39)
(-225015 -3212.67 -2203.6)
(-224835 -3199.32 -2709.08)
(-224518 -3189.32 -3337.76)
(-224015 -3180.8 -4086.14)
(-223273 -3171.74 -4944.23)
(-222242 -3159 -5887.3)
(-220888 -3137.46 -6884.72)
(-219188 -3102.89 -7900.08)
(-217116 -3055.39 -8896.1)
(-214656 -2991.43 -9807.15)
(-211857 -2908.77 -10531.6)
(-208866 -2806.75 -10965.6)
(-205893 -2689.31 -11066.4)
(-203134 -2561.58 -10868.6)
(-200722 -2431.73 -10454.6)
(-198716 -2308.2 -9915.65)
(-197120 -2198.87 -9330.88)
(-195899 -2110.12 -8759.51)
(-194996 -2046.33 -8240.39)
(-194351 -2010.44 -7796.12)
(-193902 -2003.87 -7435.95)
(-193592 -2026.8 -7161.95)
(-193371 -2078.48 -6970.64)
(-193199 -2156.59 -6854.19)
(-193044 -2260.08 -6799.16)
(-192880 -2389.27 -6790.64)
(-192687 -2541.15 -6807.53)
(-192442 -2710.98 -6829.86)
(-192125 -2891.2 -6834.81)
(-191721 -3072.5 -6787.1)
(-191211 -3243.48 -6640.43)
(-190599 -3386.26 -6348.78)
(-190023 -3474.88 -5870.32)
(-189834 -3467.74 -5144.27)
(-190210 -3305.74 -4093.58)
(-189820 -2914.76 -2542.64)
(-185368 -2267.73 -399.034)
(-175696 -1507.11 1831.98)
(-171673 -171.425 5171.09)
(-187910 3685.44 17972.3)
(-197399 31795.4 61656.1)
(-69297.7 18983.6 26972.8)
(-243688 5298.85 4791.31)
(-243360 5355.49 5225.43)
(-243222 5347.61 5344.35)
(-243099 5348.98 5448.24)
(-243051 5349.05 5564.24)
(-243047 5361.44 5665.3)
(-243092 5370.5 5736.3)
(-243177 5367.57 5772.32)
(-243298 5353.43 5752.33)
(-243443 5336.5 5662.19)
(-243596 5315.31 5489.99)
(-243737 5285.89 5217.46)
(-243851 5247.69 4829.58)
(-243919 5200.61 4317.54)
(-243922 5145.5 3679.62)
(-243837 5084.82 2919.42)
(-243634 5021.5 2049.91)
(-243286 4959.8 1093.74)
(-242781 4907.36 71.7327)
(-242077 4878.51 -982.583)
(-241132 4883.03 -2029.59)
(-239929 4921.89 -3011.2)
(-238495 4997.03 -3830.2)
(-236939 5108.03 -4386.25)
(-235405 5247.44 -4633.13)
(-234021 5405.97 -4598.12)
(-232854 5571.63 -4351.89)
(-231919 5733.57 -3971.23)
(-231196 5883.28 -3522.22)
(-230642 6014.61 -3053.53)
(-230213 6124.38 -2598)
(-229865 6211.03 -2176.03)
(-229561 6275.61 -1790.29)
(-229274 6320.42 -1434.42)
(-228990 6351.29 -1118.17)
(-228677 6368.38 -838.33)
(-228313 6372.68 -583.265)
(-227872 6363.46 -340.169)
(-227323 6339.72 -97.0465)
(-226634 6300.48 159.146)
(-225762 6248.45 445.38)
(-224641 6187.14 779.971)
(-223180 6121.08 1177.23)
(-221289 6058.2 1642.51)
(-218966 6008.9 2172.94)
(-216353 5991.03 2755.8)
(-213401 6028.9 3353.27)
(-208884 6142.13 3930.45)
(-200205 6291.48 4511.42)
(-186771 6159.74 4888.72)
(-177404 6102.18 5196.91)
(-194649 5820.14 10913.1)
(-177770 15073.7 24833.5)
(97073.9 9672.34 12514.6)
(-241737 -3587.68 -899.669)
(-241553 -3549.99 -575.679)
(-241532 -3537.32 -395.193)
(-241580 -3541.34 -208.039)
(-241689 -3525.96 -47.4896)
(-241846 -3497.87 111.04)
(-242057 -3474.56 250.467)
(-242336 -3457.72 342.142)
(-242689 -3441.37 360.588)
(-243083 -3420.36 293.89)
(-243482 -3399.83 120.143)
(-243869 -3381.11 -186.998)
(-244208 -3364.21 -647.929)
(-244457 -3349.69 -1278.57)
(-244568 -3337.89 -2087.38)
(-244474 -3328.27 -3074.76)
(-244106 -3319.65 -4230.12)
(-243394 -3310.23 -5525.25)
(-242279 -3296.88 -6914.33)
(-240711 -3281.02 -8345.74)
(-238617 -3262.53 -9775.5)
(-235897 -3240.39 -11124.7)
(-232515 -3212.28 -12228)
(-228593 -3176.35 -12879)
(-224382 -3128.91 -12975.3)
(-220146 -3069.07 -12579.5)
(-216069 -2995.16 -11842)
(-212253 -2905.23 -10913.3)
(-208741 -2798.03 -9917.76)
(-205539 -2672.8 -8944.26)
(-202635 -2528.92 -8048.35)
(-200006 -2365.56 -7259.24)
(-197627 -2181.81 -6587.69)
(-195476 -1974.99 -6034.86)
(-193535 -1745.51 -5598.44)
(-191787 -1494.4 -5275.8)
(-190219 -1224.49 -5062.29)
(-188813 -940.583 -4952.41)
(-187546 -647.932 -4941.48)
(-186386 -353.478 -5026.49)
(-185291 -66.3093 -5200.06)
(-184193 201.916 -5453.51)
(-182998 434.83 -5782.94)
(-181629 613.322 -6190.01)
(-180155 721.465 -6699.56)
(-178902 739.009 -7366.64)
(-177955 623.154 -8247.96)
(-175759 313.062 -9139.7)
(-168543 -127.076 -10167.7)
(-155282 -223.921 -10679.3)
(-153704 -1050.16 -10605.1)
(-188789 -3243.09 -9974.39)
(-167328 676.059 -16995.6)
(36945.5 3641 -7827.21)
(-234643 1712.32 4670.43)
(-234745 1723.82 5026.52)
(-234850 1673.01 5237.7)
(-235043 1603.18 5441.6)
(-235266 1538.39 5629.41)
(-235576 1476.33 5804.04)
(-235975 1399.16 5946.69)
(-236461 1304.74 6044.01)
(-237042 1199.71 6078.33)
(-237702 1091.56 6028.23)
(-238422 977.982 5871.16)
(-239184 860.244 5584.02)
(-239962 741.904 5146.82)
(-240720 626.564 4544.67)
(-241419 518.352 3768.99)
(-242006 421.954 2817.3)
(-242420 342.833 1695.51)
(-242591 285.686 425.638)
(-242421 251.334 -942.322)
(-241821 227.637 -2348.12)
(-240735 206.926 -3743.73)
(-239067 192.832 -5054.94)
(-236788 188.141 -6115.17)
(-234029 195.121 -6711.6)
(-231068 218.275 -6736.81)
(-228194 258.484 -6263.39)
(-225614 315.944 -5457)
(-223434 389.993 -4479.03)
(-221688 478.553 -3459.99)
(-220361 578.952 -2488.75)
(-219404 689.545 -1613.45)
(-218765 810.5 -854.479)
(-218390 942.181 -216.706)
(-218214 1082.81 305.606)
(-218163 1228.34 730.273)
(-218189 1382.92 1081.01)
(-218233 1547.45 1371.31)
(-218261 1720.1 1602.24)
(-218248 1899.73 1786.08)
(-218174 2084.08 1933.03)
(-218011 2268.99 2049.41)
(-217715 2447.03 2136.43)
(-217225 2606.52 2184.73)
(-216492 2732.32 2165.67)
(-215568 2808.24 2016.18)
(-214656 2808.03 1629.65)
(-213747 2686.8 847.437)
(-211431 2358.97 -552.03)
(-204427 1832.11 -3005.6)
(-189931 1684.3 -5410.47)
(-178562 1916.84 -7479.55)
(-203088 -243.832 -13133.7)
(-195574 89.4163 -48796.4)
(12303.2 2067.38 -28193.2)
(-245616 -2543.53 849.165)
(-245887 -2545.93 1181.19)
(-246132 -2544.15 1361.47)
(-246499 -2555.94 1601.52)
(-246918 -2545.73 1818.95)
(-247384 -2531.38 2027.01)
(-247927 -2527.45 2201.93)
(-248561 -2526.6 2312.92)
(-249282 -2519.83 2347.09)
(-250066 -2508.61 2289.69)
(-250896 -2496.75 2102.58)
(-251748 -2486.21 1756.04)
(-252592 -2478.89 1225.29)
(-253388 -2477.35 488.852)
(-254093 -2483.36 -465.544)
(-254660 -2499.74 -1643.16)
(-255026 -2532.6 -3037.35)
(-255120 -2583.7 -4625.56)
(-254877 -2647.16 -6353.1)
(-254263 -2712.68 -8153.71)
(-253212 -2774.85 -9985.83)
(-251568 -2830.82 -11795.4)
(-249213 -2870.46 -13359.9)
(-246291 -2878.39 -14308.3)
(-243198 -2844.27 -14413.1)
(-240309 -2775.35 -13775.9)
(-237801 -2687.83 -12670.9)
(-235692 -2595.8 -11332.7)
(-233933 -2509.21 -9931.28)
(-232450 -2432.65 -8566.71)
(-231171 -2366.07 -7285.45)
(-230042 -2305.82 -6097.55)
(-229031 -2247.22 -4993.86)
(-228124 -2187.45 -3955.66)
(-227321 -2122.95 -2961.98)
(-226635 -2048.59 -1992.67)
(-226092 -1959.12 -1029.93)
(-225725 -1848.84 -62.0726)
(-225574 -1712.63 913.976)
(-225684 -1546.21 1891.66)
(-226105 -1347.45 2854.12)
(-226880 -1117.7 3771.39)
(-228049 -862.927 4593.21)
(-229690 -596.241 5237.62)
(-232027 -341.914 5572.79)
(-235536 -140.88 5353.32)
(-240565 -61.9882 4148.8)
(-245772 -189.847 1618.08)
(-246501 -690.46 -2662.07)
(-240826 -1602.92 -8511.3)
(-238633 -2718.52 -15400.4)
(-247143 -2072.51 -29166.9)
(-227643 -11367 -71607.2)
(-79476.2 -7716.66 -34412.5)
(-242529 120.866 3698.44)
(-243271 130.928 4014.29)
(-243832 139.826 4193.9)
(-244558 131.817 4449.25)
(-245328 145.468 4669.4)
(-246197 163.197 4858.17)
(-247166 170.665 5014.3)
(-248224 174.904 5113.97)
(-249372 185.775 5139.96)
(-250593 203.158 5069.1)
(-251861 224.41 4870.2)
(-253143 248.456 4515.67)
(-254397 274.318 3981.96)
(-255576 300.167 3251.35)
(-256626 324.067 2313.2)
(-257487 342.408 1164.66)
(-258097 347.78 -189.326)
(-258415 330.431 -1721.36)
(-258519 291.325 -3373.15)
(-258462 240.417 -5076.72)
(-258193 177.979 -6793.67)
(-257577 101.473 -8472.78)
(-256491 14.3665 -9894.22)
(-255034 -73.3134 -10684.2)
(-253498 -150.735 -10608.4)
(-252140 -217.875 -9773.12)
(-251045 -280.721 -8461.75)
(-250208 -343.954 -6917.5)
(-249596 -409.792 -5325.19)
(-249170 -477.522 -3798.34)
(-248893 -544.032 -2392.36)
(-248735 -604.309 -1121.58)
(-248672 -652.999 22.3474)
(-248694 -687.218 1056.19)
(-248807 -703.049 1993.94)
(-249020 -695.309 2868.73)
(-249348 -658.183 3720.17)
(-249800 -583.836 4571.24)
(-250379 -465.731 5442.88)
(-251095 -297.138 6349.53)
(-251963 -73.1871 7299.17)
(-252990 207.643 8295.42)
(-254187 542.443 9329.76)
(-255603 920.903 10368.1)
(-257413 1320.55 11341.1)
(-260031 1704.87 12108.1)
(-263734 2021.52 12418.2)
(-267683 2166.24 11798.4)
(-268298 1961.1 9349.31)
(-264566 1545.52 4437.19)
(-263027 139.207 -4902.43)
(-283205 -2671.95 -30532.9)
(-276208 -14180 -99801.8)
(-183631 -8805.24 -33368.7)
(-239023 -1426.03 1216.5)
(-239409 -1365.13 1667.52)
(-239804 -1361.29 1896.67)
(-240339 -1344.26 2215.15)
(-240980 -1324.9 2534.72)
(-241710 -1317.05 2850.61)
(-242567 -1316.67 3138.9)
(-243563 -1319.82 3380.49)
(-244694 -1327.14 3554.61)
(-245956 -1344.54 3626.95)
(-247337 -1373.19 3556.05)
(-248811 -1415.72 3303.81)
(-250341 -1474.48 2834.32)
(-251883 -1551.26 2117.17)
(-253383 -1646.89 1129.19)
(-254777 -1761.98 -149.344)
(-255979 -1894.75 -1732.58)
(-256849 -2038.31 -3607.98)
(-257281 -2186.37 -5697.78)
(-257257 -2338.32 -7897.41)
(-256719 -2500.2 -10179.8)
(-255387 -2674.89 -12604.5)
(-252884 -2858.95 -14971.6)
(-249291 -3029.07 -16627.1)
(-245305 -3145.31 -16988.7)
(-241667 -3190.13 -16173)
(-238661 -3164.67 -14782.7)
(-236279 -3079.92 -13215.2)
(-234423 -2957.91 -11693.1)
(-232955 -2819.15 -10319.5)
(-231743 -2677.11 -9122.43)
(-230680 -2540.69 -8088.23)
(-229687 -2413.55 -7179.76)
(-228705 -2298.18 -6357.1)
(-227696 -2194.07 -5578.28)
(-226631 -2104.09 -4801.42)
(-225488 -2028.07 -3985.13)
(-224255 -1961.63 -3091.26)
(-222930 -1903.54 -2081.78)
(-221511 -1852.98 -917.272)
(-219994 -1807.79 445.06)
(-218375 -1765.61 2047.69)
(-216654 -1724.34 3930.04)
(-214878 -1681.08 6120.91)
(-213254 -1631.94 8621.77)
(-212273 -1561.89 11358.1)
(-212427 -1444.11 14095.6)
(-213180 -1243.46 16359.7)
(-212058 -838.611 17730.1)
(-209611 201.457 16583.3)
(-222894 3038.64 9362.57)
(-269424 7616.06 -9086.1)
(-288174 -2957.49 -45347.8)
(-164453 3390.36 -4873.4)
(-226924 1229.93 2191.67)
(-226554 1303.98 2804.02)
(-226416 1351.61 3092.5)
(-226285 1408.34 3523.03)
(-226220 1478.1 3926.56)
(-226184 1542.94 4329.27)
(-226193 1608.01 4727.63)
(-226255 1678.69 5090.08)
(-226371 1755.77 5387.32)
(-226541 1833.96 5585.38)
(-226755 1912.11 5643.46)
(-227005 1987.29 5520.66)
(-227277 2056.37 5177.44)
(-227559 2116.39 4580.11)
(-227840 2164.66 3702.16)
(-228106 2198.75 2525.42)
(-228329 2217.36 1037.58)
(-228455 2225.95 -739.095)
(-228388 2234.65 -2720.21)
(-228161 2243.53 -4797.98)
(-227792 2243.59 -6955.41)
(-227065 2228.28 -9249.41)
(-225687 2199.09 -11459.1)
(-223856 2174.93 -12913.2)
(-222356 2193.4 -13024.4)
(-221843 2271.93 -11957.8)
(-222320 2409.29 -10345)
(-223485 2594.44 -8559.62)
(-225029 2805.87 -6812.01)
(-226706 3025.12 -5202.22)
(-228351 3241.58 -3757.06)
(-229877 3449.58 -2467.54)
(-231250 3648.36 -1304.45)
(-232465 3842.8 -234.081)
(-233533 4036.9 778.304)
(-234480 4230.47 1764.19)
(-235352 4422.39 2738.68)
(-236186 4617 3713.72)
(-237026 4817.49 4721.66)
(-237927 5025.55 5798)
(-238931 5243.66 6967.61)
(-240078 5475.12 8256.77)
(-241414 5722.04 9698.06)
(-243041 5989.12 11324.4)
(-245228 6287.08 13162.6)
(-248464 6641.77 15197.6)
(-253191 7100.33 17398.5)
(-258708 7750.16 19552)
(-262498 8709.51 20940.3)
(-265000 10302.5 19781.1)
(-282760 12597.4 15066)
(-346922 15248.8 5102.39)
(-415212 760.04 -43953.7)
(-467871 -4978.88 -26795.6)
(-243965 -696.957 2187.38)
(-244598 -644.081 2909.54)
(-245158 -691.297 3231.93)
(-245896 -717.378 3628.43)
(-246764 -765.045 4007.2)
(-247767 -823.776 4370.35)