/*--------------------------------*- C++ -*----------------------------------*\
| =========                 |                                                 |
| \\      /  F ield         | OpenFOAM: The Open Source CFD Toolbox           |
|  \\    /   O peration     | Version:  4.1                                   |
|   \\  /    A nd           | Web:      www.OpenFOAM.org                      |
|    \\/     M anipulation  |                                                 |
\*---------------------------------------------------------------------------*/
FoamFile
{
    version     2.0;
    format      ascii;
    class       volScalarField;
    location    "11";
    object      epsilon;
}
// * * * * * * * * * * * * * * * * * * * * * * * * * * * * * * * * * * * * * //

dimensions      [0 2 -3 0 0 0 0];

internalField   nonuniform List<scalar> 
4432
(
0.000383766
0.000428057
0.000467467
0.000517998
0.000567826
0.000619338
0.000675769
0.000731661
0.000780149
0.000833175
0.000872178
0.000903196
0.000941202
0.000995875
0.00106045
0.00113971
0.00117374
0.0540237
1.64272
5.73349
15.2066
19.7078
24.2307
30.1648
28.497
21.1315
12.1741
4.12902
1.00353
1.16998
0.952061
0.462954
0.240264
0.16881
0.0112966
0.00434425
0.00334864
0.00320945
0.00310183
0.00314985
0.00302436
0.00233799
0.00233087
0.00196732
0.00173996
0.000923675
0.00122832
0.000727834
0.00129177
0.00162366
0.00215892
0.00555957
0.00568925
0.01883
0.000388087
0.000423758
0.000472583
0.000510543
0.000564893
0.000610965
0.000667685
0.000714037
0.000770899
0.000813116
0.000853883
0.000892584
0.000931577
0.000988896
0.00102142
0.00107575
0.00149916
0.173789
2.83818
5.93106
12.0161
15.3754
17.8894
18.6181
17.6892
13.2691
5.19917
1.74378
0.871477
0.235311
0.022222
0.0137508
0.0121143
0.00580278
0.0048294
0.00395726
0.00335882
0.0025471
0.00189675
0.00133982
0.00141562
0.00100987
0.000868667
0.000695046
0.000665354
0.00049556
0.000245248
0.000213106
0.000658607
0.0104454
0.0150333
0.00976827
0.00892624
0.0256068
0.0156096
0.000111524
4.81619e-05
5.81634e-05
0.000113184
0.000126077
0.000143262
0.000147045
0.00021245
0.000244091
0.000224554
0.000333413
0.000347135
0.000447973
0.000397566
0.000785474
0.000866628
0.0842746
1.00325
5.34677
11.21
11.9079
14.6197
16.6169
16.5184
16.0864
13.2822
9.88799
7.88544
22.333
24.1207
22.4836
16.1832
3.06312
2.46075
1.1564
0.102166
0.2129
0.0922993
0.087805
0.132975
0.223567
0.230451
0.105378
0.010533
0.00219241
0.003669
0.00754213
0.0339307
0.193842
0.467001
0.467514
0.418314
0.632802
0.0156105
0.000110394
4.87084e-05
5.74067e-05
0.000109961
0.000126376
0.00013673
0.000155085
0.000174332
0.000206834
0.000229638
0.000287532
0.000321886
0.000437618
0.000468824
0.000720461
0.0148022
0.144503
1.42532
4.09935
7.56296
8.57754
10.5994
10.8932
11.2585
11.1303
5.72264
3.44802
3.22772
3.12461
0.767135
2.33571
0.763446
0.106075
0.0800073
0.00648477
0.0206654
0.0069784
0.0102018
0.0104578
0.0213115
0.0140813
0.0061147
0.0139892
0.00383372
0.00175054
0.00204866
0.00703178
0.117642
0.493501
0.551956
0.476522
0.524558
0.759353
0.0155739
1.98687e-05
4.81364e-07
1.0024e-06
1.372e-06
3.4131e-06
6.02425e-06
8.52322e-06
1.24627e-05
2.31354e-05
1.88124e-05
5.69246e-05
7.12877e-05
7.18627e-05
0.000102077
0.000199977
0.0931749
1.08694
3.03334
3.03322
4.07174
4.66643
5.75603
6.77611
8.17984
5.86188
6.19568
7.28434
9.63189
9.61817
7.37646
7.5264
4.43166
0.238175
0.546311
0.351373
0.0133106
0.153563
0.110019
0.232491
0.2936
0.104338
0.137383
0.144353
0.0132526
0.00385104
0.00530731
0.0232769
0.128188
0.350158
0.782553
0.414724
0.106626
0.0135515
0.015575
1.98504e-05
4.89452e-07
1.03322e-06
1.35943e-06
3.43324e-06
5.7454e-06
7.18486e-06
1.36398e-05
1.86283e-05
2.28494e-05
4.11627e-05
3.8741e-05
0.000104068
7.51481e-05
0.000256481
0.0300331
1.26
1.93713
2.14247
2.80613
3.19123
4.23859
3.22074
3.15577
0.851318
0.736832
0.390435
0.689614
1.14314
1.26547
1.60983
1.13843
0.0491275
0.139201
0.102094
0.0139471
0.0301685
0.0145292
0.0185085
0.0256109
0.00641972
0.0162092
0.0202703
0.00801228
0.00510376
0.0040797
0.0198785
0.227228
0.563528
0.777086
0.0405706
0.0213141
0.00911809
0.0155732
1.98643e-05
7.47394e-08
3.69373e-09
5.23183e-09
2.54482e-08
1.49748e-07
3.22806e-07
6.46742e-08
2.42236e-06
3.782e-06
5.85153e-06
9.68361e-06
1.49211e-05
2.39901e-05
3.32953e-05
1.86413e-05
0.017397
1.14051
1.4576
1.52327
1.69615
2.08746
2.14928
1.99482
1.05003
1.72772
1.96216
3.06882
3.14476
2.43538
2.13398
1.61291
0.336242
0.243984
0.153436
0.0332915
0.047466
0.00178719
0.0311537
0.10532
0.0115712
0.0182176
0.0696485
0.0274218
0.000196929
0.00154486
0.00247978
0.00323071
0.00818136
0.0544681
0.133126
0.098996
0.0440902
0.0155744
1.98468e-05
7.46962e-08
3.53034e-09
5.5963e-09
4.44209e-08
1.62851e-07
4.57098e-08
8.133e-07
1.69289e-06
1.08678e-06
4.01766e-06
9.11669e-06
1.72629e-05
2.65849e-05
3.5986e-05
0.0264922
0.28728
0.858732
1.05398
1.09719
1.17793
1.34742
1.52372
1.13303
0.522694
0.602183
0.830499
0.948577
0.896795
0.972859
1.05254
0.95667
0.151077
0.0643529
0.0234718
0.00112701
0.00252272
0.000842945
0.000271769
0.00107588
7.76506e-05
0.00137912
0.000262439
0.000211453
0.00258091
0.0166181
0.0315442
0.0219952
0.0515613
0.0467535
0.00278738
0.00965763
0.00429811
0.0155728
1.9864e-05
7.46555e-08
4.49818e-10
1.50841e-10
1.774e-10
5.62179e-10
2.33608e-09
4.11579e-09
1.60453e-07
4.11212e-07
1.09645e-07
1.97958e-06
3.04116e-06
9.53634e-07
7.49661e-06
1.39136e-05
0.00305953
0.208701
0.454867
0.683934
0.816723
1.07268
0.505169
0.405157
0.187651
0.322799
1.81007
2.08023
1.87006
1.81355
1.31838
0.96764
0.987764
1.28094
0.344903
0.00225951
0.00422016
0.000429109
3.75654e-06
0.00372154
0.00127584
1.01303e-05
0.000309088
2.90132e-05
5.84912e-07
0.000170227
0.000664842
0.000861076
9.33103e-09
9.89201e-07
0.0110941
0.00825348
7.96802e-07
0.0155739
1.98455e-05
7.42412e-08
4.49455e-10
1.50932e-10
1.88269e-10
6.01547e-10
8.69607e-09
5.55562e-08
1.40354e-07
1.21207e-07
3.89877e-07
7.93255e-07
2.15528e-06
2.43633e-06
8.01345e-06
0.000527026
0.0445849
0.149974
0.313471
0.584954
0.433303
0.511853
0.763908
0.398341
0.204159
0.560382
0.773809
0.951581
0.979809
1.05322
0.847846
0.702978
0.406539
0.293934
0.0083061
0.00120416
0.000413904
7.34927e-05
1.70369e-05
0.000188644
7.00144e-06
2.12166e-07
4.38206e-05
1.90241e-05
0.000319398
0.00123223
0.00751992
0.00193925
0.000272554
0.000135753
1.2841e-06
4.40671e-05
1.43623e-06
0.0155718
1.98628e-05
7.36934e-08
4.45701e-10
1.49601e-10
1.496e-10
1.49647e-10
1.49848e-10
1.5061e-10
1.57678e-10
3.23173e-09
5.20051e-09
6.69288e-08
1.43487e-07
2.60047e-07
2.02326e-06
4.02023e-06
0.00523024
0.0495309
0.123784
0.137791
0.103511
0.106112
0.139068
0.0870867
0.0567764
0.0747966
0.210607
1.01784
0.929948
0.866884
0.690125
0.513553
0.528558
0.681451
0.00353303
0.000120134
7.35947e-05
3.14128e-05
9.30979e-05
0.000344952
1.62098e-07
2.01437e-08
9.18276e-08
2.10118e-06
8.2428e-07
8.12707e-05
0.000247295
4.26619e-06
3.62473e-07
6.82575e-08
9.37972e-07
9.27761e-07
1.20195e-06
0.0155729
1.98458e-05
7.36284e-08
4.44563e-10
1.4952e-10
1.49576e-10
1.496e-10
1.4958e-10
1.69368e-10
6.62217e-10
3.26393e-10
9.07825e-09
6.34528e-08
2.01783e-07
4.03807e-07
2.20697e-06
0.000110629
0.0101632
0.0402551
0.0810488
0.106776
0.0495941
0.0751238
0.110214
0.0887493
0.0566286
0.0753631
0.375571
0.54796
0.561822
0.594051
0.504727
0.403917
0.272048
0.0998311
0.000300773
1.22835e-06
2.7998e-09
1.527e-10
8.86164e-10
1.2074e-06
5.53166e-09
3.60544e-10
2.68197e-10
7.64177e-07
2.77692e-08
1.98597e-06
0.000413486
9.53261e-06
2.35073e-05
1.14082e-05
1.07741e-06
4.88512e-06
1.32219e-06
0.0155712
1.98608e-05
7.37041e-08
4.47149e-10
1.4963e-10
1.49539e-10
1.49769e-10
1.49589e-10
1.49613e-10
1.50199e-10
1.50825e-10
1.5056e-10
1.74933e-10
2.07326e-10
2.56537e-10
6.36403e-08
3.96934e-07
0.00120142
0.0112834
0.0314751
0.0284743
0.0292579
0.0204257
0.0286874
0.0265476
0.0202817
0.0237739
0.0478886
0.301319
0.319556
0.559576
0.511281
0.404885
0.169792
0.046749
6.30023e-05
1.03637e-08
1.50525e-10
1.54529e-10
7.75821e-06
1.7377e-10
1.51268e-10
1.02048e-09
1.51965e-10
5.97044e-10
1.92093e-09
1.31434e-05
6.17021e-05
2.00394e-06
5.89068e-09
6.13792e-10
4.76764e-08
3.18866e-08
3.17706e-07
0.0155722
1.98434e-05
7.36629e-08
4.46162e-10
1.49537e-10
1.49514e-10
1.49511e-10
1.4948e-10
1.49506e-10
1.5003e-10
1.4976e-10
1.52244e-10
1.90124e-10
3.07862e-10
7.40401e-10
2.29212e-06
2.5233e-05
0.00311809
0.0108672
0.0147398
0.0307566
0.00853424
0.00780279
0.0205532
0.029299
0.0230754
0.0224154
0.185038
0.225142
0.274862
0.269913
0.307585
0.215327
0.102362
0.0378796
6.51152e-06
2.18986e-09
1.51183e-10
1.50261e-10
1.50324e-10
1.50404e-10
1.49958e-10
1.50292e-10
1.50453e-10
1.55689e-10
1.68239e-10
4.85426e-09
3.96e-05
9.61405e-07
1.53679e-10
9.25809e-08
1.06462e-06
8.1101e-07
6.23138e-07
0.0155698
1.98608e-05
7.46897e-08
4.46022e-10
1.49463e-10
1.49416e-10
1.49425e-10
1.49487e-10
1.49892e-10
1.49556e-10
1.49452e-10
1.49647e-10
1.49688e-10
1.50167e-10
1.49724e-10
3.07013e-10
1.1797e-06
1.37593e-05
0.0029552
0.0106545
0.0100391
0.0106242
0.00773041
0.0108405
0.0124365
0.0106036
0.012227
0.0383478
0.0884048
0.041286
0.102261
0.0884233
0.123742
0.0177027
0.00442507
5.51808e-06
6.86583e-10
1.49988e-10
1.5007e-10
1.50071e-10
1.50225e-10
1.51001e-10
1.49269e-10
1.51264e-10
1.52183e-10
1.69192e-10
7.07996e-08
1.9324e-05
1.87377e-08
2.10222e-10
1.19241e-08
2.93164e-08
8.86602e-08
1.16011e-07
0.0155708
1.98457e-05
7.4652e-08
4.45177e-10
1.49439e-10
1.49543e-10
1.49535e-10
1.49562e-10
1.49914e-10
1.49509e-10
1.49412e-10
1.4961e-10
1.49638e-10
1.50258e-10
1.50026e-10
1.81768e-09
4.42631e-05
0.000505937
0.00312927
0.00504012
0.00963241
4.68193e-05
0.00053057
0.00654034
0.00885302
0.0115529
0.0165667
0.067424
0.0764277
0.0875711
0.0646505
0.0774037
0.0716487
0.0506363
0.0199745
0.000100341
7.90454e-08
1.6113e-10
1.49939e-10
1.49911e-10
1.50025e-10
1.50945e-10
1.50161e-10
1.50272e-10
1.50483e-10
1.50696e-10
1.67275e-10
7.98891e-09
1.557e-10
1.36642e-09
4.55877e-08
4.08909e-08
1.03885e-07
5.12525e-08
0.0155689
1.98584e-05
7.47319e-08
4.47427e-10
1.49458e-10
1.49417e-10
1.49813e-10
1.49582e-10
1.49518e-10
1.50316e-10
1.49539e-10
1.49476e-10
1.50244e-10
1.49638e-10
1.49607e-10
1.49726e-10
1.48802e-10
1.35542e-08
7.11982e-05
0.00141355
6.36659e-05
0.00213331
0.00271106
2.77504e-06
0.00442135
0.00598729
0.00220438
0.0074474
0.0332936
0.0116786
0.0240655
0.0129955
0.0362775
0.00532535
0.00156841
0.000239518
2.19705e-06
4.51457e-10
1.49933e-10
1.50226e-10
1.50972e-10
1.5055e-10
1.5051e-10
1.51059e-10
1.51634e-10
1.5171e-10
6.60709e-10
2.15162e-07
1.52269e-10
4.27501e-10
4.669e-09
6.75304e-09
3.26144e-08
3.52763e-08
0.0155699
1.98423e-05
7.46951e-08
4.46897e-10
1.49424e-10
1.49394e-10
1.49397e-10
1.49399e-10
1.49446e-10
1.49876e-10
1.49573e-10
1.49577e-10
1.5021e-10
1.49601e-10
1.49597e-10
1.49908e-10
2.12061e-10
1.9947e-06
8.35573e-05
0.000381442
0.000243398
2.42725e-06
0.000442682
0.00201097
0.000520426
0.00331162
0.000599257
0.0155343
0.0216344
0.0255099
0.0158484
0.0155086
0.0160946
0.0128918
0.00857609
0.000234556
3.54034e-07
3.30021e-10
1.49964e-10
1.50143e-10
1.50625e-10
1.50654e-10
1.50604e-10
1.51461e-10
1.50487e-10
1.5043e-10
1.50184e-10
2.21188e-10
1.50919e-10
2.98377e-10
4.92038e-09
8.25661e-09
5.34536e-08
2.75901e-08
0.0155671
1.98576e-05
7.47429e-08
4.49162e-10
1.49468e-10
1.49418e-10
1.49799e-10
1.49522e-10
1.49468e-10
1.50262e-10
1.50203e-10
1.49579e-10
1.49626e-10
1.50193e-10
1.49606e-10
1.49556e-10
1.49793e-10
1.38758e-10
6.67814e-08
5.88739e-06
2.13007e-08
5.40799e-05
0.000129713
4.3073e-05
6.26596e-05
7.51406e-05
2.97348e-06
0.000724336
0.00530129
0.00588058
0.00505312
0.00540253
0.00975718
0.00464399
0.00180386
0.000337929
1.4644e-06
2.66051e-09
1.54547e-10
1.51059e-10
1.50635e-10
1.50225e-10
1.5041e-10
1.50941e-10
1.51848e-10
1.511e-10
1.51486e-10
2.73477e-10
1.50981e-10
1.84461e-10
3.53248e-09
9.77878e-09
1.64947e-08
6.26029e-08
0.0155682
1.98437e-05
7.46956e-08
4.47111e-10
1.49437e-10
1.49416e-10
1.49755e-10
1.49755e-10
1.49773e-10
1.5003e-10
1.50085e-10
1.49506e-10
1.49517e-10
1.50191e-10
1.49668e-10
1.49611e-10
1.49589e-10
1.81625e-09
1.04958e-07
4.46283e-07
2.37668e-07
2.13436e-09
5.47578e-05
0.000500053
0.000125495
0.000664611
0.000394309
0.00338635
0.00615377
0.00831336
0.00770888
0.00691084
0.00394183
0.00622481
0.000543145
1.82277e-06
3.62167e-09
1.55554e-10
1.50632e-10
1.5061e-10
1.50784e-10
1.50768e-10
1.50484e-10
1.50515e-10
1.50538e-10
1.50531e-10
1.50282e-10
1.50611e-10
1.51181e-10
1.56475e-10
2.60326e-09
1.20247e-08
2.65481e-08
1.03324e-07
0.0155661
1.98548e-05
7.47852e-08
4.49372e-10
1.49481e-10
1.49506e-10
1.49497e-10
1.49471e-10
1.49493e-10
1.49577e-10
1.49911e-10
1.4955e-10
1.49506e-10
1.49566e-10
1.49671e-10
1.497e-10
1.49709e-10
1.49662e-10
2.0466e-10
6.1599e-09
1.42594e-10
5.26284e-08
1.91723e-07
1.45467e-06
9.93079e-08
1.90014e-07
3.97091e-09
6.51998e-05
0.000171469
0.00151692
0.000984914
0.00192513
0.00250047
0.0015904
0.000232487
3.91698e-06
6.0064e-09
1.63371e-10
1.50559e-10
1.51022e-10
1.50784e-10
1.50487e-10
1.50497e-10
1.50668e-10
1.50897e-10
1.512e-10
1.51065e-10
1.5171e-10
1.51217e-10
1.51385e-10
1.59993e-10
4.68259e-10
1.80433e-10
7.90756e-09
0.0155671
1.98397e-05
7.47498e-08
4.48541e-10
1.49447e-10
1.49323e-10
1.49327e-10
1.4941e-10
1.49419e-10
1.49558e-10
1.49837e-10
1.49524e-10
1.49517e-10
1.49564e-10
1.49703e-10
1.49797e-10
1.49703e-10
1.5065e-10
2.39201e-10
3.72467e-10
2.6728e-10
1.50909e-10
4.22608e-07
2.15277e-05
6.20433e-07
0.0001349
3.07796e-05
0.00061082
0.00166047
0.00234033
0.00143094
0.00290905
0.00181373
0.000101439
4.60295e-07
1.38998e-09
1.52919e-10
1.51051e-10
1.51167e-10
1.50517e-10
1.50426e-10
1.50698e-10
1.50689e-10
1.51006e-10
1.51712e-10
1.51029e-10
1.5073e-10
1.51647e-10
1.51509e-10
1.5189e-10
1.5661e-10
3.84082e-10
2.14827e-10
1.151e-08
0.0155641
1.98549e-05
7.49095e-08
4.49879e-10
1.49692e-10
1.5001e-10
1.49673e-10
1.49696e-10
1.50289e-10
1.49575e-10
1.49487e-10
1.50266e-10
1.49563e-10
1.49458e-10
1.49665e-10
1.49715e-10
1.49793e-10
1.4992e-10
1.50587e-10
1.52983e-10
1.50714e-10
1.99534e-10
2.64716e-10
1.64773e-09
3.75954e-10
4.9899e-10
1.54976e-10
7.19123e-07
3.18713e-07
1.09123e-05
8.97473e-05
6.42196e-05
0.000148836
1.56513e-05
1.17772e-07
8.44548e-10
1.51951e-10
1.50033e-10
1.51499e-10
1.50467e-10
1.50465e-10
1.5079e-10
1.51492e-10
1.51377e-10
1.51147e-10
1.52371e-10
1.52398e-10
1.53563e-10
1.52154e-10
1.52276e-10
1.53057e-10
1.53808e-10
1.53848e-10
5.92161e-10
0.0155651
1.9842e-05
7.4881e-08
4.50479e-10
1.49516e-10
1.49464e-10
1.49439e-10
1.4952e-10
1.49947e-10
1.49574e-10
1.49473e-10
1.50267e-10
1.49535e-10
1.49391e-10
1.49575e-10
1.49521e-10
1.49628e-10
1.49745e-10
1.50202e-10
1.50429e-10
1.50794e-10
1.49422e-10
6.65805e-10
3.94755e-08
3.97664e-10
9.86508e-07
8.43252e-08
8.30943e-06
0.000182851
0.000129719
3.13036e-05
5.17166e-05
2.91202e-06
6.19127e-08
4.49219e-10
1.52116e-10
1.5032e-10
1.50026e-10
1.515e-10
1.5083e-10
1.50714e-10
1.51116e-10
1.51575e-10
1.51855e-10
1.52845e-10
1.51653e-10
1.51533e-10
1.54156e-10
1.52712e-10
1.52579e-10
1.53513e-10
1.52676e-10
1.88367e-10
1.42878e-09
0.0155629
1.98443e-05
7.35713e-08
4.58995e-10
1.49799e-10
1.49715e-10
1.49714e-10
1.50107e-10
1.50022e-10
1.50036e-10
1.50329e-10
1.49724e-10
1.49715e-10
1.50341e-10
1.49822e-10
1.49724e-10
1.49751e-10
1.49901e-10
1.50519e-10
1.50008e-10
1.49818e-10
1.49878e-10
1.52004e-10
1.25664e-10
5.76709e-09
1.50433e-10
1.49912e-10
1.50515e-10
3.66445e-10
8.21248e-09
9.15996e-08
7.44926e-08
1.4449e-07
6.70176e-09
1.9377e-10
1.50427e-10
1.50138e-10
1.51135e-10
1.51099e-10
1.51409e-10
1.51428e-10
1.51527e-10
1.51558e-10
1.52782e-10
1.52848e-10
1.52379e-10
1.52399e-10
1.528e-10
1.52997e-10
1.55268e-10
1.54543e-10
1.54888e-10
1.54523e-10
1.57847e-10
0.0155639
1.98286e-05
7.3502e-08
4.58075e-10
1.49794e-10
1.49872e-10
1.49817e-10
1.50061e-10
1.49722e-10
1.49703e-10
1.50331e-10
1.49804e-10
1.4985e-10
1.504e-10
1.49669e-10
1.49463e-10
1.4971e-10
1.49741e-10
1.5039e-10
1.501e-10
1.4973e-10
1.49673e-10
3.26197e-06
1.16337e-06
1.22957e-06
4.1509e-09
2.45459e-10
2.16188e-08
4.667e-07
3.02605e-07
2.4428e-08
4.27478e-08
1.08281e-09
1.66647e-10
1.51229e-10
1.51303e-10
1.50498e-10
1.50557e-10
1.50879e-10
1.50895e-10
1.51285e-10
1.51251e-10
1.51254e-10
1.51263e-10
1.51632e-10
1.52123e-10
1.52679e-10
1.55561e-10
1.53098e-10
1.52739e-10
1.5572e-10
1.53733e-10
1.52983e-10
1.59928e-10
0.0155606
1.98734e-05
7.47152e-08
4.60596e-10
1.49658e-10
1.49571e-10
1.49825e-10
1.4951e-10
1.49414e-10
1.50175e-10
1.49609e-10
1.49501e-10
1.50005e-10
1.50056e-10
1.50389e-10
1.4972e-10
1.49606e-10
1.49667e-10
1.49762e-10
1.50578e-10
1.50091e-10
1.52537e-10
5.66681e-06
1.60901e-10
3.19449e-08
1.33369e-05
1.88226e-07
1.05918e-07
3.08608e-08
2.93241e-08
2.52343e-10
1.90287e-10
1.81178e-10
1.51994e-10
1.50855e-10
1.50784e-10
1.51409e-10
1.50324e-10
1.50325e-10
1.51044e-10
1.51078e-10
1.50988e-10
1.51058e-10
1.52732e-10
1.52458e-10
1.52343e-10
1.52725e-10
1.52884e-10
1.53014e-10
1.54728e-10
1.54956e-10
1.5563e-10
1.55873e-10
1.58642e-10
0.0155619
1.98249e-05
7.37757e-08
4.57859e-10
1.49758e-10
1.49706e-10
1.49976e-10
1.49632e-10
1.49637e-10
1.50338e-10
1.49575e-10
1.49409e-10
1.49613e-10
1.49713e-10
1.49743e-10
1.49619e-10
1.5031e-10
1.49988e-10
1.49967e-10
1.5047e-10
1.39129e-07
4.04597e-07
3.79648e-05
0.000140872
0.000769176
0.00513989
0.000462577
3.10913e-06
3.26503e-07
2.88075e-07
1.86718e-07
5.37609e-10
1.51912e-10
1.50951e-10
1.50195e-10
1.50083e-10
1.50443e-10
1.50349e-10
1.50312e-10
1.50585e-10
1.51948e-10
1.51784e-10
1.51773e-10
1.52132e-10
1.51709e-10
1.51674e-10
1.52226e-10
1.5387e-10
1.54278e-10
1.54438e-10
1.54306e-10
1.54702e-10
1.55449e-10
1.58037e-10
0.0155597
1.98338e-05
7.36022e-08
4.62149e-10
1.49652e-10
1.49674e-10
1.50191e-10
1.49511e-10
1.4944e-10
1.50218e-10
1.49908e-10
1.49801e-10
1.49912e-10
1.50141e-10
1.49605e-10
1.49544e-10
1.49744e-10
1.49709e-10
1.49745e-10
1.4992e-10
1.50864e-10
2.40994e-10
1.52823e-10
3.94524e-07
8.13297e-05
5.16581e-05
0.000105243
2.58621e-05
9.25198e-06
6.31929e-06
1.02388e-07
1.27876e-08
3.024e-08
1.50139e-10
1.51276e-10
1.51251e-10
1.51475e-10
1.50974e-10
1.5092e-10
1.50811e-10
1.50945e-10
1.52356e-10
1.51441e-10
1.51489e-10
1.5227e-10
1.52444e-10
1.52888e-10
1.52864e-10
1.53019e-10
1.53048e-10
1.53812e-10
1.53709e-10
1.55124e-10
1.60706e-10
0.0155823
1.99525e-05
7.53627e-08
4.66967e-10
1.49729e-10
1.50077e-10
1.49516e-10
1.4947e-10
1.50102e-10
1.49793e-10
1.49803e-10
1.5016e-10
1.498e-10
1.49783e-10
1.50007e-10
1.50009e-10
1.50308e-10
1.49681e-10
1.49577e-10
1.50555e-10
1.26118e-06
4.9168e-05
8.48663e-06
0.00382914
0.000518592
7.11379e-05
0.000407347
3.67339e-05
7.21189e-06
5.17857e-06
1.80648e-06
7.56029e-07
3.74669e-08
2.41474e-10
1.50937e-10
1.50536e-10
1.50751e-10
1.50999e-10
1.51109e-10
1.51751e-10
1.51212e-10
1.51145e-10
1.51335e-10
1.51426e-10
1.52323e-10
1.5193e-10
1.51978e-10
1.52273e-10
1.52333e-10
1.53076e-10
1.54516e-10
1.54826e-10
1.55695e-10
1.60745e-10
0.0155763
2.00213e-05
7.65233e-08
4.68005e-10
1.49682e-10
1.49607e-10
1.4989e-10
1.49549e-10
1.49483e-10
1.50441e-10
1.4969e-10
1.49695e-10
1.50476e-10
1.49691e-10
1.49528e-10
1.50369e-10
1.49671e-10
1.49631e-10
1.50251e-10
1.49778e-10
1.4969e-10
9.38081e-10
6.52015e-09
9.24152e-06
0.012931
0.00139378
0.000448635
0.000160015
6.11832e-05
1.43168e-05
5.38534e-06
3.12104e-07
1.66614e-09
1.54237e-10
1.50423e-10
1.51465e-10
1.51132e-10
1.51141e-10
1.51737e-10
1.51309e-10
1.51387e-10
1.51452e-10
1.51596e-10
1.52048e-10
1.53552e-10
1.52664e-10
1.52277e-10
1.5267e-10
1.53334e-10
1.56908e-10
1.56994e-10
1.58082e-10
1.63057e-10
0.0155553
1.99035e-05
7.39439e-08
4.64192e-10
1.4985e-10
1.49767e-10
1.49941e-10
1.4967e-10
1.49696e-10
1.5027e-10
1.50253e-10
1.49693e-10
1.49696e-10
1.50277e-10
1.49997e-10
1.50051e-10
1.50374e-10
1.4982e-10
1.49638e-10
1.50188e-10
1.50076e-10
6.39782e-07
1.81536e-05
0.000937807
0.00429026
0.00164282
0.000396356
0.00014641
4.10913e-05
1.328e-05
4.41948e-06
2.05687e-06
3.87519e-08
2.27094e-10
1.5049e-10
1.50674e-10
1.50281e-10
4.72635e-10
1.57693e-10
2.73078e-10
9.1986e-11
1.61744e-10
1.52649e-10
1.52787e-10
1.53998e-10
1.53272e-10
1.53177e-10
1.53301e-10
1.53528e-10
1.56331e-10
1.56379e-10
1.56903e-10
1.63213e-10
0.0155563
1.98858e-05
7.43988e-08
4.65865e-10
1.49944e-10
1.50112e-10
1.49475e-10
1.49432e-10
1.50014e-10
1.49992e-10
1.50145e-10
1.5016e-10
1.50231e-10
1.49701e-10
1.49566e-10
1.50278e-10
1.5036e-10
1.49957e-10
1.50192e-10
1.49997e-10
1.50003e-10
1.50612e-10
9.83281e-08
1.98644e-06
0.000512295
0.00144406
0.000417806
0.000269295
0.00012179
4.94209e-05
2.01425e-05
4.98897e-06
2.95167e-08
1.81825e-10
1.50709e-10
1.50639e-10
1.51067e-10
1.75978e-10
1.88628e-10
1.65767e-10
1.50327e-10
1.58729e-10
1.49027e-10
1.58002e-10
1.51341e-10
1.81533e-10
1.57014e-10
1.54986e-10
1.53659e-10
1.53599e-10
1.54139e-10
1.54044e-10
1.55397e-10
1.61116e-10
0.0155572
1.98728e-05
7.43545e-08
4.65279e-10
1.4988e-10
1.50092e-10
1.49508e-10
1.4941e-10
1.50089e-10
1.50048e-10
1.5017e-10
1.50044e-10
1.50157e-10
1.49651e-10
1.4956e-10
1.50528e-10
1.4975e-10
1.49749e-10
1.50475e-10
1.49878e-10
1.49904e-10
1.49959e-10
6.44931e-06
1.61264e-05
0.0158419
0.011312
0.000681352
0.000327362
0.000141782
5.37148e-05
2.00375e-05
9.26661e-06
5.69209e-07
1.40582e-09
1.52785e-10
1.49788e-10
4.50174e-10
1.81613e-10
1.92789e-07
7.43759e-09
1.957e-07
1.7226e-08
1.07714e-08
1.52399e-10
1.51831e-10
1.51842e-10
1.97117e-10
2.18806e-10
1.67187e-10
1.55702e-10
1.57716e-10
1.55154e-10
1.55347e-10
1.63437e-10
0.0155549
1.98286e-05
7.36271e-08
4.67261e-10
1.4982e-10
1.49705e-10
1.49712e-10
1.50178e-10
1.49498e-10
1.49359e-10
1.50151e-10
1.49612e-10
1.49524e-10
1.50336e-10
1.49561e-10
1.49589e-10
1.49904e-10
1.49923e-10
1.50358e-10
1.50003e-10
1.50074e-10
1.50186e-10
4.78799e-08
4.74621e-08
1.29669e-06
2.61053e-05
6.26802e-05
5.00082e-05
9.84391e-07
4.98976e-08
6.70619e-08
8.65777e-10
1.52664e-10
1.50674e-10
1.50929e-10
1.48264e-10
1.38761e-09
3.94927e-08
4.02153e-08
1.77335e-08
2.86826e-07
7.10381e-09
3.46974e-07
5.2504e-09
1.13892e-10
1.61569e-08
2.33885e-09
2.04852e-10
1.59602e-10
1.55412e-10
1.55078e-10
1.55605e-10
1.56398e-10
1.6265e-10
0.0155558
1.9819e-05
7.36073e-08
4.66632e-10
1.49803e-10
1.49682e-10
1.4969e-10
1.50155e-10
1.49476e-10
1.49352e-10
1.50181e-10
1.50054e-10
1.50174e-10
1.49722e-10
1.49662e-10
1.50338e-10
1.50356e-10
1.50621e-10
1.49852e-10
1.49727e-10
1.49856e-10
1.45094e-10
1.96672e-06
1.02029e-05
9.91906e-05
8.14657e-05
0.000144341
0.000100443
2.5069e-06
2.6816e-07
8.77515e-07
1.83186e-08
2.48851e-10
1.50733e-10
1.50555e-10
1.51294e-10
2.54543e-07
1.42557e-09
3.16673e-06
1.97838e-07
3.41684e-06
6.31232e-07
4.15114e-06
1.69925e-10
1.51871e-10
1.79763e-10
4.52965e-08
2.55524e-08
5.10693e-09
3.79042e-10
1.60293e-10
1.55098e-10
1.55474e-10
1.6194e-10
0.0155539
1.98322e-05
7.39289e-08
4.66787e-10
1.49571e-10
1.49483e-10
1.49833e-10
1.49485e-10
1.49302e-10
1.49517e-10
1.4953e-10
1.49975e-10
1.49743e-10
1.49659e-10
1.49637e-10
1.50269e-10
1.49991e-10
1.49962e-10
1.50434e-10
1.50019e-10
1.50058e-10
1.50579e-10
7.3382e-09
3.16493e-08
1.46309e-07
7.58067e-07
6.04262e-06
1.02377e-06
1.74754e-07
4.43462e-09
1.65497e-10
1.51058e-10
1.50277e-10
1.50093e-10
1.60221e-10
7.42225e-08
8.9029e-07
2.17004e-06
2.34269e-06
3.69066e-06
2.18958e-06
2.23748e-06
1.52261e-05
2.81642e-06
3.47458e-07
1.35271e-06
3.26264e-07
9.39468e-09
9.59036e-10
2.00997e-10
1.57746e-10
1.54738e-10
1.56329e-10
1.62365e-10
0.0155547
1.98215e-05
7.39022e-08
4.66086e-10
1.49532e-10
1.49458e-10
1.49808e-10
1.49464e-10
1.49279e-10
1.49986e-10
1.49591e-10
1.49566e-10
1.50094e-10
1.49678e-10
1.49663e-10
1.49736e-10
1.49863e-10
1.4975e-10
1.49614e-10
1.50665e-10
1.50563e-10
1.50712e-10
2.87169e-07
3.4869e-07
3.85196e-07
4.10978e-06
1.22041e-05
7.36799e-06
2.67901e-06
2.64692e-07
1.34214e-09
1.5618e-10
1.50016e-10
1.4996e-10
1.38153e-10
2.47039e-10
4.05616e-06
9.44598e-09
4.70751e-05
1.19364e-06
1.31696e-05
1.60885e-05
0.000177659
4.45855e-09
3.13609e-10
2.9579e-08
2.79809e-06
5.51739e-07
1.06072e-07
3.58162e-08
1.25483e-09
1.81418e-10
1.56912e-10
1.63925e-10
0.0155524
1.98292e-05
7.39553e-08
4.66492e-10
1.49493e-10
1.4938e-10
1.4951e-10
1.50059e-10
1.49506e-10
1.49442e-10
1.50112e-10
1.49682e-10
1.49554e-10
1.49721e-10
1.49888e-10
1.49601e-10
1.49557e-10
1.50104e-10
1.49884e-10
1.49852e-10
1.50063e-10
1.50518e-10
1.85822e-10
8.67336e-09
1.65062e-08
1.44576e-07
9.55856e-07
5.46374e-07
6.41955e-08
3.64816e-10
1.51007e-10
1.50407e-10
1.50704e-10
1.50688e-10
4.51632e-08
2.30286e-06
1.35261e-05
2.73929e-05
1.87011e-05
2.70552e-05
7.17696e-06
2.05679e-05
0.000105044
0.000233707
2.03209e-05
1.01417e-05
2.71539e-06
1.00906e-07
2.4935e-08
6.39106e-09
8.31746e-10
2.17694e-10
1.57515e-10
1.62212e-10
0.0155532
1.98208e-05
7.39274e-08
4.6584e-10
1.49523e-10
1.49383e-10
1.4943e-10
1.50022e-10
1.49488e-10
1.49424e-10
1.50077e-10
1.49683e-10
1.49616e-10
1.49618e-10
1.49926e-10
1.49576e-10
1.49535e-10
1.49763e-10
1.49724e-10
1.4996e-10
1.49913e-10
1.39454e-10
1.103e-08
5.56352e-08
6.46549e-08
5.43072e-07
2.3484e-06
1.41676e-06
7.95893e-07
9.45055e-09
1.6535e-10
1.50051e-10
1.50552e-10
5.77383e-10
2.98908e-07
3.54175e-06
2.24156e-05
0.000167196
0.000272793
5.84237e-05
5.95607e-05
9.05297e-05
0.00100625
5.11208e-08
5.26233e-09
1.54111e-06
1.8476e-05
3.48406e-06
7.33489e-07
2.69666e-07
2.97318e-08
2.93911e-09
1.98016e-10
1.62266e-10
0.0155515
1.98269e-05
7.40179e-08
4.6731e-10
1.49662e-10
1.4953e-10
1.49524e-10
1.49582e-10
1.49783e-10
1.49639e-10
1.49608e-10
1.49774e-10
1.49797e-10
1.50384e-10
1.49938e-10
1.49526e-10
1.49697e-10
1.4981e-10
1.49892e-10
1.50235e-10
1.49778e-10
1.49716e-10
1.4988e-10
1.51026e-10
1.64833e-10
5.06174e-09
2.93513e-08
2.58689e-09
1.70921e-10
1.50907e-10
1.50696e-10
1.50795e-10
1.50752e-10
1.48019e-10
2.60167e-07
1.05224e-05
8.65005e-05
0.000243555
0.000296927
0.000127793
6.79032e-05
0.000155502
0.000968944
0.00246198
0.000210176
5.83503e-05
9.14466e-06
6.75625e-07
1.30208e-07
2.94791e-08
1.09745e-08
2.35756e-09
2.2812e-10
1.64757e-10
0.0155523
1.98169e-05
7.39841e-08
4.66718e-10
1.49725e-10
1.49752e-10
1.49709e-10
1.49687e-10
1.4981e-10
1.49701e-10
1.4965e-10
1.49645e-10
1.49683e-10
1.5026e-10
1.49709e-10
1.49619e-10
1.49953e-10
1.49951e-10
1.50428e-10
1.49769e-10
1.49614e-10
1.49638e-10
1.54166e-10
3.01204e-10
2.72052e-10
2.08084e-08
2.4391e-07
4.75192e-08
6.56993e-10
1.52254e-10
1.50108e-10
1.50066e-10
1.50072e-10
2.77612e-06
7.06016e-06
5.45735e-05
0.000181854
0.00053905
0.000507921
0.00047491
0.000137322
0.000575222
0.00660998
1.05455e-05
1.82023e-06
0.000117678
0.00013291
2.06526e-05
4.77722e-06
9.55575e-07
1.80509e-07
7.76765e-08
6.5849e-09
3.5637e-10
0.0155503
1.98239e-05
7.39998e-08
4.67907e-10
1.49657e-10
1.49487e-10
1.49473e-10
1.49567e-10
1.49806e-10
1.49561e-10
1.49468e-10
1.50207e-10
1.49907e-10
1.49965e-10
1.50341e-10
1.4975e-10
1.49639e-10
1.50062e-10
1.50043e-10
1.50448e-10
1.49641e-10
1.49622e-10
1.50695e-10
1.50529e-10
1.5065e-10
1.54401e-10
1.58371e-10
1.51579e-10
1.50514e-10
1.50504e-10
1.50805e-10
1.50737e-10
1.50868e-10
1.54333e-10
5.74369e-06
9.70081e-05
0.000598714
0.000806189
0.000825578
0.000663183
0.000268943
0.00111928
0.00239984
0.00752128
0.00068435
0.000225174
4.79651e-05
2.82875e-06
4.54475e-07
9.23148e-08
1.81e-08
3.36245e-09
3.0483e-10
3.82731e-10
0.0155511
1.98159e-05
7.39679e-08
4.67157e-10
1.49719e-10
1.49747e-10
1.49678e-10
1.49667e-10
1.49775e-10
1.49769e-10
1.49814e-10
1.5006e-10
1.49881e-10
1.49938e-10
1.50377e-10
1.49842e-10
1.4958e-10
1.49659e-10
1.49683e-10
1.50207e-10
1.49766e-10
1.49641e-10
1.50768e-10
1.50364e-10
1.50457e-10
2.36323e-10
3.2176e-10
1.70725e-10
1.5109e-10
1.50684e-10
1.50792e-10
1.49938e-10
1.51604e-10
2.49108e-06
2.71204e-05
0.000331857
0.00061464
0.000699757
0.000664788
0.000559703
0.00044363
0.00335472
0.0378957
0.000979926
0.000463507
0.00172385
0.000638319
0.000100923
2.36875e-05
4.51787e-06
9.05433e-07
3.86215e-07
1.35693e-07
8.34713e-09
0.0155498
1.98208e-05
7.39614e-08
4.68261e-10
1.49786e-10
1.49606e-10
1.49609e-10
1.49697e-10
1.49874e-10
1.49573e-10
1.49362e-10
1.49582e-10
1.49624e-10
1.50176e-10
1.49632e-10
1.49546e-10
1.49959e-10
1.49884e-10
1.49925e-10
1.50244e-10
1.49713e-10
1.49698e-10
1.50627e-10
1.50004e-10
1.49916e-10
1.5004e-10
1.50327e-10
1.50096e-10
1.50113e-10
1.50816e-10
1.50523e-10
1.50563e-10
1.72114e-10
3.72568e-09
3.77279e-05
0.000606933
0.000703331
0.00114212
0.00128428
0.000892837
0.000442803
0.00662242
0.0192478
0.0215834
2.33276e-06
0.000630343
0.00017434
6.74928e-06
4.08838e-07
2.56e-08
3.1473e-09
2.58077e-09
2.99867e-09
5.92469e-09
0.0155506
1.98118e-05
7.39318e-08
4.67517e-10
1.49767e-10
1.4961e-10
1.49617e-10
1.50033e-10
1.49512e-10
1.49416e-10
1.49863e-10
1.49528e-10
1.49504e-10
1.50111e-10
1.49539e-10
1.49499e-10
1.50051e-10
1.50025e-10
1.50006e-10
1.5022e-10
1.49751e-10
1.49694e-10
1.50192e-10
1.50187e-10
1.50259e-10
1.50257e-10
1.50732e-10
1.49851e-10
1.49738e-10
1.50678e-10
1.49881e-10
1.49801e-10
1.58816e-10
3.00748e-05
0.000353673
0.000731246
0.000987813
0.00101933
0.00111736
0.00084661
0.000508249
0.000798498
0.173162
0.0622795
0.0203196
0.00722461
0.00246652
0.000214689
3.61877e-05
1.27836e-06
5.0201e-08
3.94597e-08
1.27625e-08
1.41784e-09
0.015549
1.98173e-05
7.39299e-08
4.68848e-10
1.498e-10
1.50003e-10
1.4941e-10
1.49298e-10
1.49902e-10
1.49459e-10
1.49457e-10
1.49554e-10
1.49798e-10
1.49651e-10
1.49634e-10
1.50483e-10
1.50055e-10
1.50139e-10
1.50494e-10
1.49897e-10
1.49834e-10
1.49934e-10
1.50245e-10
1.49943e-10
1.49966e-10
1.50944e-10
1.49797e-10
1.49725e-10
1.5088e-10
1.49821e-10
1.4975e-10
1.50374e-10
1.38318e-10
1.11386e-05
0.000126413
0.000918919
0.00151958
0.00196337
0.00243112
0.00206176
0.00217911
0.0413982
0.100494
0.0607117
3.8886e-05
0.00171939
0.000471398
2.95975e-06
9.88584e-08
1.76648e-08
1.82556e-08
2.17376e-08
3.1736e-08
5.72992e-08
0.0155498
1.98102e-05
7.39041e-08
4.68289e-10
1.49784e-10
1.50008e-10
1.49372e-10
1.49285e-10
1.49923e-10
1.49431e-10
1.49425e-10
1.50121e-10
1.49597e-10
1.49565e-10
1.49462e-10
1.49438e-10
1.49602e-10
1.49729e-10
1.50311e-10
1.49996e-10
1.49978e-10
1.5061e-10
1.5016e-10
1.50198e-10
1.50493e-10
1.49992e-10
1.50011e-10
1.50165e-10