/*--------------------------------*- C++ -*----------------------------------*\
| =========                 |                                                 |
| \\      /  F ield         | OpenFOAM: The Open Source CFD Toolbox           |
|  \\    /   O peration     | Version:  4.1                                   |
|   \\  /    A nd           | Web:      www.OpenFOAM.org                      |
|    \\/     M anipulation  |                                                 |
\*---------------------------------------------------------------------------*/
FoamFile
{
    version     2.0;
    format      ascii;
    class       volScalarField;
    location    "11";
    object      nut;
}
// * * * * * * * * * * * * * * * * * * * * * * * * * * * * * * * * * * * * * //

dimensions      [0 2 -1 0 0 0 0];

internalField   nonuniform List<scalar> 
4432
(
34.9865
35.9499
36.8541
37.778
38.8039
39.9537
40.5927
42.1891
42.3931
44.0045
44.7074
41.5208
59.8642
8.4619
315.071
84.1072
7306.58
9662.93
1461.14
3501.88
2635.76
2323.57
4892.14
4246.51
4360.72
3418.95
3195.85
5997.76
16887.7
18041.2
18479.9
34212.8
144850
86976.1
341160
425203
82633.4
1023.8
84.7257
81.9703
68.4883
76.0958
57.6068
52.6437
39.8202
27.7539
140.192
340.241
53.1575
367.529
2765.67
6015.6
349.794
285.333
35.108
35.8454
37.0464
37.9619
38.9525
39.9076
40.9315
41.9104
42.7305
43.538
45.2738
41.3558
55.9911
17.7319
184.604
127.92
10455.4
1552.76
678.298
2089.25
2678.48
2460.55
4439.55
4436.98
3834.96
2753.32
3704.5
7741.72
13137.3
35918.9
238575
87859
28177
43118.2
11472.6
2575.74
937.785
284.942
18.1291
77.9818
79.1183
78.6609
54.3646
99.5311
23.4756
35.3473
328.41
38336.3
19648.3
7768.17
36858.3
6098.59
2108.15
570.352
2.1713e-05
0.000107075
0.038704
0.199981
0.329112
0.601348
0.994829
1.47719
1.81565
1.94276
4.65802
2.21604
9.17715
1.77266
25.6389
55.4685
156.455
15.0854
1929.18
10454.8
9876.34
18635.4
25302.3
24533.1
22611.8
18580.1
11503.1
7941.9
12407.1
10110.6
8110.96
21753
39677.5
10950.9
13150.6
108.228
3367.49
66.1616
82.2221
12.7021
53.696
88.4931
100.111
84.6062
9.49495
0.0678008
11.5037
0.259872
40.3359
218.225
2502.44
179.115
0.437436
7.14996
2.17156e-05
0.000106085
0.0411399
0.198206
0.333392
0.613342
1.00622
1.42511
2.15797
2.17063
5.70247
4.64417
10.6411
6.5135
18.8488
4.68189
1.58001
99.3883
3404.51
12111.6
12313.5
16092.3
21643
20136.7
21271.8
4235.2
1937.42
4825.21
10863.1
2110.31
1086.42
1759.5
7581.25
5970.81
846.669
123.46
18.4834
0.575013
0.773272
0.766256
4.97223
9.95381
5.52237
5.76813
3.0646
0.125818
45.4546
1684.44
15.0902
794.435
1608.9
28.036
2.9713
8.98497
2.15246e-05
3.2176e-07
1.81518e-06
0.000408785
0.00654511
0.00851377
0.0142723
0.0323387
0.116871
0.146684
0.540655
0.337394
0.321131
0.398614
0.614231
2.7131
1.46294e-05
286.127
21217.1
27408.5
23679.7
27653.3
29396.9
24898.2
16394.2
5074.64
2352.91
2362.16
3586.01
8041.22
6435.09
10815.6
14583.9
14318
3147.28
75.1123
3365.53
26.3922
167.367
159.71
498.564
344.348
207.521
561.506
68.1293
3.18647
9.73006
227.724
1199.47
9689.02
176147
61752.8
350.919
3.37787
2.1526e-05
3.21808e-07
2.04946e-06
0.000322489
0.00796852
0.00310586
0.0489458
0.0841984
0.0583765
0.22221
0.529985
0.32266
0.511873
1.85417
4.58191
44.5216
1452.83
5504.89
26212.9
29959
25229.8
25276
19375.3
6941.43
6648.94
1378.42
1442.31
7388.2
4196.04
527.96
1299.65
8534.08
8762.27
7130.55
350.454
51.9286
65.6843
16.2529
10.2203
10.2994
50.1994
154.438
9.13283
31.9522
1.99403
0.000400319
463.14
750.862
475.507
3231.62
212285
8536.09
263.846
3.30604
2.15225e-05
3.20714e-07
4.00238e-09
2.13391e-06
0.00053617
0.000150169
0.000427873
0.00831436
0.0541832
0.000821522
0.0268808
0.0312864
0.0142887
0.0331382
0.00222916
0.711015
950.685
172.556
23197.4
31896.3
29357.8
27910.7
29791.5
30392
31879.7
7976.81
2797.07
5088.84
7625.22
8792.62
26529.2
69223
76207
27356.4
6243.2
86.6544
58.7166
27.9943
1158.63
409.567
11977.3
4264
1.21203
980.879
495.563
0.453507
1.38397
445.976
896.08
8035.36
19252.2
7387.48
1430.2
76.5618
2.1524e-05
3.20884e-07
3.82393e-09
1.80598e-06
0.00137516
0.002232
0.000811547
0.018999
3.1388e-05
0.00799078
0.0399573
0.0708375
0.0503235
0.44435
0.0250613
1.2827
613.401
12866.4
24507.3
32059.9
25788.2
19571.8
17719
36717.2
37585.5
17248.8
15814.2
16902.8
22272
14783.4
28701.9
58240.3
20807.9
10750.5
541.732
8.54702
19.7398
4.55313
0.00169443
0.293779
957.671
172.084
6.5269e-09
89.3353
37.9328
0.470286
9256.82
5916.33
0.167541
858.017
34465
2007.8
551.807
43.897
2.15208e-05
3.20738e-07
3.98019e-09
5.58438e-10
2.17685e-07
0.000188139
9.54873e-05
2.50033e-06
0.000108887
0.000128643
9.2375e-05
0.00470227
1.59761e-05
2.24804e-05
0.000151344
0.00936594
0.0205475
20.2208
252.823
17134
24539.9
13118.7
20522.6
32704.9
80256
70976
29044.4
30874
32858.6
41497.7
81755
112286
130606
122107
85521
5202.2
133.583
4.76739
346.001
2.70023e+06
160367
37042.1
2111.08
5.02333
0.839983
0.124604
4.46407e-05
1.74185
0.000175614
7.44094e-06
0.0438874
4.65887e-12
119.129
29420
2.15222e-05
3.2095e-07
4.05967e-09
5.11275e-10
2.55765e-07
6.2719e-07
2.56374e-05
2.93688e-08
9.7125e-06
6.74517e-05
7.63249e-05
0.000790154
5.37603e-05
0.00141323
1.2873e-05
26.1284
52.6499
9.87082
98.8123
6451.02
6864.65
4759.15
18061.1
47164.2
56743.9
54752.3
45128.7
77223.3
65281.5
63593.8
66711.8
96964.5
101172
61423.3
1889.7
1028.79
0.00129359
0.197229
0.000134962
10895.5
20703.3
0.235988
0.0484361
1016.77
0.000580824
1.99642e-11
9.974e-06
7.47283e-06
4.57759e-12
0.000116656
8.95856
31165.4
839.809
912.285
2.15177e-05
3.20871e-07
4.22731e-09
5.99723e-10
1.28062e-12
2.89328e-12
3.67874e-10
1.52984e-10
1.60282e-08
3.05009e-07
4.61732e-07
2.34228e-06
2.25721e-09
5.45905e-10
1.57828e-09
3.8636e-06
2.10576e-08
3.71995e-05
0.00105188
1.17483
8.96523
1155.34
6640.65
126122
99654.8
102624
74693.1
41859.7
50360.9
56068.7
85114.2
106429
124814
96988.7
2787.55
119.708
0.00728216
2.11011e-15
3.44339e-17
981.988
570.032
2.2943e+06
7374.96
188.457
52.6024
5.4014e-09
2.05609e-12
0.000335564
0.000745918
5.12635e-09
0.00457947
1.54049e-05
2.59907e-06
4.61193e-06
2.15192e-05
3.21078e-07
4.22598e-09
5.9819e-10
1.43176e-12
1.59988e-12
1.92845e-10
5.45997e-12
8.16225e-08
2.79683e-06
4.57162e-06
7.17586e-08
2.19886e-09
5.35338e-08
2.65238e-10
0.00114324
0.00325383
1.35143e-05
0.000331213
0.337698
0.148449
0.177799
1429.43
65169.4
80458.4
100134
72940
92053.2
63161.8
65053.6
73313.8
91413.8
96106.4
62.7672
70.252
0.740082
8.08834e-10
8.66225e-15
1.81954e-15
2.68957e-15
33674.9
2.08034
0.00981115
0.037321
0.00838862
0.00160895
3.32744e-14
1.72213e-13
2.30306e-16
2.73941e-09
0.741254
0.000459454
9.82932e-07
4.70273e-06
2.15155e-05
3.20953e-07
4.24325e-09
6.04865e-10
3.21354e-13
9.40411e-15
1.80781e-14
3.32642e-15
1.1892e-13
2.37328e-18
1.02201e-10
9.23648e-10
3.38533e-11
1.29487e-11
7.48217e-11
6.69881e-10
2.24724e-15
4.05412e-12
8.13248e-11
7.22665e-08
3.47027e-08
0.0164933
3.39643
178631
160647
172964
126247
60430.7
38832
46504.7
75533.2
91377.2
111339
27027.9
1.54925
0.0102863
1.2626e-14
3.3282e-15
2.29666e-15
6.041e-17
0.00222925
0.00211355
0.453616
0.000411316
0.235179
0.000513612
7.91861e-13
2.0404e-09
1.1071e-13
3.54924e-14
7.6293e-07
1.16142e-06
4.99339e-06
7.99872e-07
2.15168e-05
3.21146e-07
4.23903e-09
6.02983e-10
3.16922e-13
8.84324e-15
1.65553e-14
1.204e-14
6.79682e-13
8.68916e-11
7.12054e-11
4.04018e-11
3.00942e-11
1.83865e-09
1.10244e-11
1.62053e-14
2.46387e-10
9.8108e-13
5.53059e-11
4.88003e-08
3.35748e-10
2.06981e-07
2.12332
9000.22
111247
133063
106351
90031.4
47555.7
55650.3
47740.8
76284.8
60229.9
0.879416
0.000298212
3.23801e-07
6.89602e-14
1.09067e-14
1.30004e-14
2.28233e-12
4.59817e-08
1.49439e-05
0.0252924
0.000539271
1.205e-07
7.75714e-10
1.54881e-15
7.95013e-16
8.83193e-18
2.86899e-11
3.72501e-09
4.20272e-08
8.16274e-09
1.15748e-07
2.15114e-05
3.21017e-07
4.03162e-09
5.65472e-10
3.00226e-13
1.15365e-14
1.12858e-14
1.0578e-14
1.091e-14
1.16279e-14
1.73693e-14
3.96164e-14
1.87327e-14
1.46416e-14
2.51554e-14
1.03087e-11
9.82257e-20
1.27497e-14
7.2747e-15
1.00995e-13
5.61082e-15
7.01061e-11
1.31041e-06
13766.8
159948
198399
166223
1018.87
21.2082
50.6059
11486.8
26681.5
35450.6
570.38
1.90944e-06
1.7428e-11
3.82314e-15
1.27219e-14
1.19643e-14
1.22737e-15
1.79078e-05
1.47037e-05
0.0215359
4.46363e-06
2.50683e-05
1.56653e-07
2.4409e-15
1.96276e-14
1.16936e-15
4.23544e-09
4.9722e-08
5.58727e-07
5.74441e-07
4.52462e-07
2.15129e-05
3.21195e-07
4.02597e-09
5.64006e-10
2.99092e-13
1.17835e-14
1.02459e-14
1.02559e-14
1.00874e-14
1.61077e-14
1.60567e-14
1.28087e-14
3.65543e-15
1.35429e-13
2.15832e-15
4.47777e-15
2.18784e-17
2.69319e-16
7.42156e-15
1.11842e-13
5.93589e-15
4.24102e-12
0.000495294
2.8289
8872.61
139468
402.266
22394.1
644.039
3118.62
63.6862
1771.73
55.4955
1.51614e-07
3.9049e-12
2.99843e-15
9.90184e-16
1.43733e-14
1.18152e-14
1.2736e-14
1.22337e-14
1.3726e-14
3.97284e-14
4.22267e-12
7.45318e-11
6.90405e-15
1.10199e-14
8.24861e-16
1.76218e-12
4.76908e-10
2.7787e-09
1.7531e-07
9.10366e-08
5.80751e-07
2.15087e-05
3.21111e-07
4.04268e-09
5.6844e-10
3.04988e-13
1.16338e-14
1.13174e-14
1.08095e-14
1.07841e-14
1.19298e-14
1.09343e-14
1.03726e-14
1.12417e-14
1.14986e-14
1.18517e-14
1.85391e-14
4.84919e-16
1.17093e-15
2.08498e-17
5.31994e-17
2.50822e-18
2.78073e-14
7.59008e-14
2.2418
89868.7
193645
1249.42
0.00455501
1.87846e-06
2.3732e-07
1.68224
17.3872
93.0116
0.0404979
4.66854e-10
5.04685e-13
1.37567e-14
2.75275e-14
1.20227e-14
1.43277e-14
1.29095e-14
1.56214e-14
2.26544e-14
1.01689e-12
4.57029e-10
3.28995e-12
6.0719e-15
1.1681e-15
3.46425e-09
8.51291e-07
5.73492e-07
1.77437e-06
8.49791e-07
5.77466e-07
2.151e-05
3.21294e-07
4.03851e-09
5.66958e-10
2.94774e-13
1.13189e-14
1.0685e-14
1.05284e-14
1.06894e-14
1.16589e-14
1.07412e-14
1.02235e-14
1.13053e-14
1.15356e-14
1.12187e-14
1.2004e-14
8.12619e-15
2.11895e-17
2.08215e-17
1.28624e-16
2.06915e-17
8.87947e-16
1.59201e-10
1.52622e-06
0.0641286
1678.71
0.0312057
4.34002
0.0338315
0.204869
0.00027029
0.0965846
2.05859e-05
3.03024e-12
2.22955e-15
2.59553e-17
4.76913e-17
6.25633e-15
1.21475e-14
1.47534e-14
1.30855e-14
1.34479e-14
1.35219e-14
1.45864e-14
3.94679e-15
1.29073e-14
1.25664e-14
7.78111e-14
5.29693e-10
3.22291e-07
2.16616e-07
6.89499e-07
2.20264e-07
6.87984e-07
2.1504e-05
3.21178e-07
4.06442e-09
5.73802e-10
3.06655e-13
1.11199e-14
1.07201e-14
1.00326e-14
1.00548e-14
1.06925e-14
1.06926e-14
1.10291e-14
1.09183e-14
1.0959e-14
1.13207e-14
1.12741e-14
1.10317e-14
1.31055e-14
5.02391e-17
5.87715e-18
3.04349e-17
9.1663e-17
1.28598e-16
28.9602
2823.35
23378.1
5.46993
9.44279e-13
7.34949e-14
4.12851e-15
3.79356e-06
1.89989e-05
0.000122163
1.16742e-09
1.66381e-13
4.05956e-16
5.52848e-17
1.25603e-15
1.43593e-14
1.46567e-14
1.35533e-14
1.44388e-14
1.39604e-14
1.43601e-14
2.01702e-14
1.38151e-14
1.40941e-14
2.61548e-14
4.37193e-11
2.62275e-08
2.81342e-08
1.30147e-07
2.33426e-07
1.76831e-07
2.15054e-05
3.21383e-07
4.06201e-09
5.70532e-10
3.00883e-13
1.16034e-14
1.01778e-14
1.04063e-14
1.09572e-14
1.09658e-14
1.11605e-14
1.11346e-14
1.14634e-14
1.08857e-14
1.07224e-14
1.13671e-14
1.14772e-14
1.06632e-15
3.36566e-17
2.35365e-17
2.91584e-17
1.58619e-15
1.97344e-14
9.98256e-14
1.32632e-09
0.00116705
2.26649e-11
4.12788e-07
2.24048e-08
7.53413e-08
3.16425e-11
4.43385e-09
2.85851e-12
1.09389e-15
8.57365e-18
1.18004e-17
6.92147e-16
1.53865e-14
1.40695e-14
1.42315e-14
1.50936e-14
1.39813e-14
1.33568e-14
1.42493e-14
1.34772e-14
1.3268e-14
1.27242e-14
1.64316e-14
5.74662e-13
2.04351e-09
4.34121e-08
2.5706e-07
4.14783e-07
2.93507e-07
2.1501e-05
3.21289e-07
4.07793e-09
5.75657e-10
3.08324e-13
1.17268e-14
9.87435e-15
9.99826e-15
1.14459e-14
1.03778e-14
1.03739e-14
1.07843e-14
1.12023e-14
1.1815e-14
1.17858e-14
1.17117e-14
1.1963e-14
1.15751e-14
8.34882e-15
3.53559e-16
1.21655e-14
9.08801e-17
7.74437e-17
0.0424757
89.1392
96.1683
0.282407
1.3177e-17
1.17963e-16
1.25173e-14
8.62537e-13
5.58138e-13
4.37797e-12
2.5752e-14
1.55198e-16
3.18598e-17
5.95353e-16
1.40924e-14
1.43614e-14
1.48802e-14
1.5374e-14
1.56329e-14
1.48227e-14
1.45025e-14
1.59941e-14
1.85308e-14
1.51575e-14
1.44873e-14
3.98082e-14
6.52933e-12
9.4393e-10
4.12078e-09
4.50684e-10
5.59099e-09
2.15022e-05
3.21498e-07
4.07403e-09
5.74657e-10
3.0152e-13
1.10118e-14
1.02709e-14
1.04011e-14
1.09112e-14
1.07498e-14
1.07947e-14
1.09694e-14
1.16945e-14
1.12126e-14
1.08454e-14
1.18154e-14
1.13414e-14
1.11945e-14
7.25752e-15
5.51922e-15
6.82993e-15
1.15265e-14
9.73065e-16
6.37957e-16
8.93733e-12
2.9233e-12
3.95855e-16
3.86964e-14
1.62047e-13
1.92678e-13
7.70931e-15
1.36127e-14
2.93198e-16
7.28354e-18
1.99442e-17
1.61822e-15
1.27915e-14
1.5701e-14
1.58631e-14
1.68443e-14
1.59108e-14
1.59541e-14
1.76673e-14
1.58575e-14
1.55501e-14
2.0359e-14
1.77433e-14
1.52074e-14
1.67812e-14
2.7783e-13
6.55598e-10
6.73386e-09
3.09107e-10
2.0175e-08
2.14959e-05
3.21267e-07
4.08113e-09
5.75887e-10
2.95767e-13
1.07066e-14
9.9849e-15
1.00526e-14
1.0446e-14
1.06272e-14
1.06338e-14
1.07156e-14
1.20139e-14
1.14773e-14
1.15723e-14
1.31605e-14
1.1153e-14
1.09811e-14
1.13817e-14
1.12526e-14
1.16407e-14
8.86682e-15
9.99648e-15
0.0108842
6.81434
5.75526
0.0349654
7.34491e-16
3.93316e-17
5.9531e-17
2.41276e-16
3.98415e-16
9.2021e-16
6.37344e-17
8.89952e-17
3.0832e-15
1.34512e-14
1.27311e-14
1.30747e-14
1.32661e-14
1.54775e-14
1.58518e-14
1.61163e-14
1.62308e-14
1.71443e-14
1.76871e-14
2.14559e-14
1.9927e-14
1.9653e-14
2.8037e-14
2.05615e-13
1.14609e-13
4.12649e-13
1.39243e-09
2.14972e-05
3.21483e-07
4.07445e-09
5.76539e-10
3.11268e-13
1.15905e-14
1.0135e-14
1.03193e-14
1.10624e-14
1.1082e-14
1.17643e-14
1.14925e-14
1.168e-14
1.25214e-14
1.11248e-14
1.10092e-14
1.16838e-14
1.15646e-14
1.15647e-14
1.14956e-14
1.1306e-14
1.163e-14
4.20001e-15
1.4178e-16
2.50065e-08
2.5043e-05
7.68685e-16
1.76555e-16
3.58959e-16
1.824e-16
1.79157e-17
2.58958e-17
1.28999e-17
3.839e-17
4.51857e-15
1.66768e-14
1.42077e-14
1.27184e-14
1.40354e-14
1.49544e-14
1.68128e-14
1.6214e-14
1.69651e-14
1.76077e-14
1.8282e-14
2.45424e-14
2.04769e-14
1.94041e-14
2.3694e-14
2.30628e-14
5.66175e-14
4.22042e-14
1.75281e-10
2.90065e-10
2.14929e-05
3.21814e-07
4.43217e-09
6.50595e-10
3.74728e-13
1.22985e-14
1.20706e-14
1.10348e-14
1.0064e-14
1.12559e-14
1.05716e-14
1.06168e-14
1.16801e-14
1.06904e-14
1.06851e-14
1.13053e-14
1.10188e-14
1.13711e-14
1.29645e-14
1.16798e-14
1.18443e-14
6.49887e-14
1.10378e-14
1.22152
0.0382391
0.00106779
1.8485e-07
0.148867
0.0073826
2.00854e-16
1.66834e-17
5.89586e-17
5.18965e-17
3.51371e-16
9.96515e-15
1.30416e-14
1.33528e-14
1.26596e-14
1.33127e-14
1.41639e-14
1.41994e-14
1.52269e-14
1.61926e-14
2.02032e-14
1.82223e-14
1.78695e-14
2.06812e-14
2.08875e-14
2.82639e-14
2.90888e-14
3.2581e-14
3.63108e-14
3.76448e-14
6.04533e-12
2.1494e-05
3.22088e-07
4.43365e-09
6.50092e-10
3.74124e-13
1.22522e-14
1.19915e-14
1.10035e-14
1.02825e-14
1.1525e-14
1.14448e-14
1.16734e-14
1.17257e-14
1.16279e-14
1.25255e-14
1.13041e-14
1.10556e-14
1.29113e-14
1.2568e-14
1.40019e-14
1.18727e-14
1.19876e-14
4.02739e-19
8.88579
8.14225
0.00880678
4.46299e-06
2.21205
1.42185e-17
4.80772e-17
1.15492e-16
1.03666e-09
8.52006e-11
1.2639e-14
1.26411e-14
1.33998e-14
1.42054e-14
1.58951e-14
8.12289e-15
4.5773e-13
2.27423e-14
1.68163e-14
1.52867e-14
1.79473e-14
1.80707e-14
1.94853e-14
2.09582e-14
3.68813e-14
3.01729e-14
2.4834e-14
4.1584e-14
3.42583e-14
2.50575e-14
5.72575e-12
2.14879e-05
3.20595e-07
4.20567e-09
6.10674e-10
3.65275e-13
1.25641e-14
1.25405e-14
1.11118e-14
1.09235e-14
1.32359e-14
1.10704e-14
1.07887e-14
1.25143e-14
1.1845e-14
1.15207e-14
1.24228e-14
1.23934e-14
1.28817e-14
1.27273e-14
1.2942e-14
1.42672e-14
0.976074
0.00377435
0.00171179
1.55275
0.00839104
0.0604975
0.030352
0.0125852
0.00174873
2.21113e-05
3.80537e-08
1.64886e-11
1.09597e-13
1.64198e-14
1.20561e-14
1.44571e-14
1.39078e-14
1.35189e-14
1.56801e-14
1.59286e-14
1.49983e-14
1.47496e-14
1.62782e-14
1.64605e-14
1.61836e-14
1.60118e-14
1.78784e-14
2.00584e-14
2.39547e-14
2.82392e-14
3.31474e-14
3.97407e-14
8.90968e-14
2.14889e-05
3.22423e-07
4.38797e-09
6.41188e-10
3.56579e-13
1.18471e-14
1.20672e-14
1.10032e-14
1.06395e-14
1.29672e-14
1.07816e-14
1.08089e-14
1.09264e-14
1.09353e-14
1.20294e-14
1.1602e-14
1.16647e-14
1.18745e-14
1.28672e-14
1.21748e-14
1.16913e-17
1.0866e-16
2775.77
14.982
0.0767335
2.44794
0.178064
2.20717
2.1951
0.309205
0.00120058
1.1841e-05
8.68637e-08
5.94091e-11
2.37981e-13
1.42045e-14
1.95575e-14
1.02499e-15
5.85429e-11
8.37854e-09
1.5403e-12
4.46604e-14
1.51342e-14
1.65091e-14
1.67622e-14
1.66052e-14
1.78646e-14
3.36335e-14
2.92714e-14
2.36906e-14
3.10005e-14
3.08368e-14
3.11243e-14
6.66594e-14
2.14848e-05
3.2229e-07
4.47257e-09
6.60897e-10
3.88972e-13
1.23742e-14
1.22492e-14
1.1118e-14
1.07532e-14
1.24625e-14
1.22726e-14
1.27339e-14
1.20238e-14
1.20087e-14
1.30123e-14
1.17415e-14
1.10163e-14
1.2681e-14
1.1892e-14
1.20476e-14
1.28078e-14
7.71722e-05
1.65972e-05
1.5112
0.0209946
0.0312024
0.067141
0.0171726
0.00502354
0.000180524
0.000263929
7.47676e-06
2.50714e-12
5.59438e-13
1.61619e-14
1.49382e-14
1.42532e-14
2.08451e-14
3.27309e-13
1.89568e-13
2.20992e-14
2.22736e-14
1.95804e-14
1.94217e-14
2.02903e-14
1.94762e-14
1.96611e-14
2.76007e-14
2.75165e-14
2.70073e-14
3.38639e-14
3.79567e-14
4.85049e-14
1.0564e-13
2.14711e-05
3.18655e-07
4.15152e-09
6.06313e-10
3.71932e-13
1.16071e-14
1.11228e-14
1.27468e-14
1.09184e-14
1.1095e-14
1.28674e-14
1.0893e-14
1.05688e-14
1.2594e-14
1.16868e-14
1.13976e-14
1.23232e-14
1.14627e-14
1.14099e-14
1.39143e-14
1.11283e-16
1.38978e-05
9.72235e-05
1191.98
45.5877
62.4359
9.049
2.01144
1.09672
0.203943
0.00212678
2.55768e-07
7.94087e-11
1.1708e-11
6.15244e-14
1.82009e-15
8.11717e-12
6.21127e-14
4.36854e-05
0.000154255
8.3912e-09
7.09703e-11
2.41365e-13
2.42879e-14
2.24851e-14
2.19771e-14
1.7031e-14
8.59951e-14
3.91342e-14
2.92527e-14
6.28232e-14
5.56505e-14
3.97756e-14
1.13458e-13
2.14675e-05
3.15282e-07
3.9255e-09
5.65856e-10
3.39472e-13
1.20014e-14
1.27545e-14
1.1118e-14
1.08244e-14
1.31285e-14
1.11202e-14
1.08943e-14
1.25996e-14
1.24693e-14
1.28919e-14
1.2889e-14
1.29779e-14
1.39022e-14
1.17418e-14
1.12029e-14
1.42699e-14
0.00208941
0.00297971
5.25175e-05
3.36337
0.537594
0.180558
0.0583644
0.00216004
7.85768e-07
1.02256e-11
1.80571e-14
5.91564e-15
1.44001e-14
1.32941e-14
1.02511e-13
1.33307e-11
2.969e-09
9.99632e-10
2.00631e-12
4.79115e-14
1.57238e-14
1.54913e-14
1.63609e-14
1.86497e-14
9.51302e-15
3.81135e-12
1.37124e-12
5.86235e-14
4.54999e-14
3.40723e-14
4.14992e-14
8.61916e-14
2.14834e-05
3.1834e-07
4.42635e-09
6.55366e-10
3.99326e-13
1.37474e-14
1.07903e-14
1.02803e-14
1.08732e-14
1.08948e-14
1.12938e-14
1.18349e-14
1.09803e-14
1.09048e-14
1.20532e-14
1.19064e-14
1.1894e-14
1.2322e-14
1.15937e-14
1.16087e-14
1.75415e-14
2.96037e-10
468.477
375.46
19.0858
3.80302
0.772509
0.312293
0.164732
0.0126076
1.97541e-05
6.18442e-11
3.52969e-14
4.29565e-14
1.28372e-14
2.39675e-06
3.26718e-05
0.00142934
8.33491
6.71264e-05
2.36002e-06
1.56765e-09
8.08764e-12
5.12346e-14
3.46886e-14
1.6003e-12
2.18175e-10
3.41871e-11
2.21859e-13
3.36073e-14
2.4116e-14
2.91135e-14
8.06139e-14
2.14775e-05
3.19532e-07
4.32118e-09
6.37294e-10
3.90649e-13
1.15025e-14
1.09703e-14
1.2095e-14
1.13313e-14
1.12535e-14
1.27655e-14
1.10066e-14
1.08236e-14
1.30476e-14
1.1958e-14
1.18635e-14
1.25378e-14
1.26373e-14
1.35274e-14
1.2772e-14
3.52639e-14
9.13621e-05
26.4863
0.0162336
0.248959
0.688104
0.676373
0.341215
0.0303891
8.77882e-06
9.6753e-11
2.60623e-14
2.66016e-15
1.48275e-14
8.14726e-15
8.27004e-12
1.17399e-09
1.583e-06
0.000123065
3.32503e-05
4.10327e-08
8.94802e-11
1.68373e-13
1.92128e-14
1.98955e-14
3.62033e-14
4.2361e-11
6.13224e-09
2.22247e-09
6.60278e-11
6.95659e-12
2.29792e-13
5.27307e-14
7.99658e-14
2.14784e-05
3.19784e-07
4.32022e-09
6.37397e-10
3.88869e-13
1.15728e-14
1.09471e-14
1.20701e-14
1.12265e-14
1.11788e-14
1.26804e-14
1.12517e-14
1.0645e-14
1.22083e-14
1.15195e-14
1.13811e-14
1.16275e-14
1.25656e-14
1.18031e-14
1.10157e-14
1.30253e-14
5.98601e-11
57.4182
52.8195
3.31391
4.28833
7.89765
2.36109
0.767407
0.0105928
8.62426e-06
3.20971e-11
1.50715e-14
8.48029e-15
2.10747e-14
0.000344693
0.0165238
1.43131
0.188742
2677.25
1.46575e-05
2.38046e-08
6.46387e-15
3.72568e-11
4.37292e-13
3.46857e-12
1.51662e-08
1.9631e-06
3.44755e-07
1.33304e-09
3.76236e-11
3.25183e-13
4.80751e-14
7.90162e-14
2.14727e-05
3.2219e-07
4.5161e-09
6.75772e-10
4.17422e-13
1.28125e-14
1.19148e-14
1.26336e-14
1.11347e-14
1.07734e-14
1.29655e-14
1.11637e-14
1.06857e-14
1.09795e-14
1.15757e-14
1.15918e-14
1.17079e-14
1.42429e-14
1.15467e-14
1.15946e-14
3.01326e-14
0.000837242
0.000377008
0.0756159
0.136735
0.0269223
0.120589
0.0216419
0.00500031
2.30163e-05
3.7225e-11
1.76541e-13
1.58989e-14
1.36689e-14
7.02718e-16
8.19747e-07
9.02631e-06
0.00142627
0.0110358
2.46965e-06
1.32119e-07
6.69905e-10
2.41876e-17
6.20581e-16
7.01282e-14
5.57531e-15
1.12848e-08
1.85475e-05
1.02887e-05
2.49118e-07
6.7173e-09
1.48586e-10
3.35424e-12
3.4937e-13
2.14737e-05
3.2244e-07
4.51015e-09
6.74143e-10
4.1404e-13
1.27428e-14
1.18539e-14
1.2567e-14
1.10697e-14
1.0918e-14
1.28948e-14
1.13317e-14
1.06715e-14
1.08119e-14
1.08455e-14
1.14986e-14
1.15626e-14
1.30741e-14
1.1644e-14
1.12323e-14
1.22252e-13
38.7357
0.410244
0.000551957
0.371158
2.93767
1.99697
0.423791
0.0660446
0.000172183
1.02823e-10
7.13007e-14
2.06149e-14
1.28925e-14
1.23268e-14
7.79569
0.667542
204123
4942.95
357441
1.72999
0.000387148
5.11161e-14
1.64012e-07
1.85752e-09
3.72185e-09
3.2253e-07
6.72138e-05
2.93547e-05
1.27111e-06
1.41728e-07
1.01808e-09
8.06091e-12
6.95966e-13
2.14705e-05
3.21938e-07
4.44284e-09
6.61944e-10
4.02387e-13
1.24643e-14
1.13893e-14
1.13656e-14
1.19895e-14
1.20782e-14
1.21323e-14
1.29097e-14
1.13493e-14
1.0542e-14
1.14307e-14
1.15102e-14
1.35561e-14
1.16336e-14
1.0895e-14
1.1636e-14
1.24074e-14
8.3396e-06
2.45566e-05
0.000122393
0.0017267
0.000424534
0.0169077
0.00581061
7.61858e-06
8.84633e-08
2.11822e-09
1.11076e-12
1.5637e-14
2.64374e-14
1.80366e-08
5.60757e-09
0.00110309
12.7234
86.8413
0.005758
0.569786
5.5693e-07
3.42289e-16
3.4516e-17
1.65392e-15
8.86758e-14
3.68933e-07
0.000293439
0.00118764
0.000307818
1.28922e-05
4.27483e-07
7.4699e-09
1.85117e-10
2.14714e-05
3.22164e-07
4.43828e-09
6.60517e-10
3.99209e-13
1.23949e-14
1.13279e-14
1.13123e-14
1.17112e-14
1.1901e-14
1.20213e-14
1.27118e-14
1.10694e-14
1.05009e-14
1.12068e-14
1.12561e-14
1.32499e-14
1.17242e-14
1.11906e-14
1.1193e-14
1.54946e-14
0.12894
0.00971081
0.000150062
0.27584
0.0729734
0.739855
0.0307714
1.58468e-06
3.62098e-11
8.61991e-13
3.78662e-14
1.23742e-14
1.17377e-14
1.81481e-14
712041
6246.87
663688
765184
8.7034e+06
70256.2
1.82038
3.52289e-10
5.46748e-07
8.94959e-07
1.05021e-07
6.91447e-09
0.0659997
0.00515388
3.25837e-06
6.34966e-06
6.02389e-07
8.19735e-09
2.58903e-10
2.14663e-05
3.21948e-07
4.45001e-09
6.62424e-10
3.88197e-13
1.16555e-14
1.07122e-14
1.08708e-14
1.11437e-14
1.13033e-14
1.22159e-14
1.11248e-14
1.08796e-14
1.18381e-14
1.19432e-14
1.2661e-14
1.16378e-14
1.1343e-14
1.18756e-14
1.24601e-14
1.23539e-14
8.97611e-15
1.20664e-06
5.06478e-06
1.09583e-05
9.05704e-06
0.000138261
1.44097e-06
4.35594e-10
1.10646e-10
3.19425e-13
1.46027e-14
1.33156e-11
1.87796e-09
0.00866793
0.0244892
189.868
90645.5
552609
1415.72
109454
0.179624
2.93083e-11
1.12778e-16
8.14107e-18
3.32933e-09
2.05726e-06
0.0198009
0.00358313
0.000670801
0.000527802
0.000169299
7.40681e-06
1.19162e-07
2.14673e-05
3.22188e-07
4.44531e-09
6.61106e-10
3.84924e-13
1.15959e-14
1.06543e-14
1.08036e-14
1.10468e-14
1.12096e-14
1.22108e-14
1.10793e-14
1.08198e-14
1.1397e-14
1.12062e-14
1.11115e-14
1.15287e-14
1.28256e-14
1.28506e-14
1.32778e-14
1.19624e-14
1.77408e-05
3.22012e-05
7.72655e-05
0.0001595
0.0200534
0.0140223
0.000166583
8.88983e-10
1.18869e-12
1.52906e-13
1.34792e-14
1.24866e-14
4.33731e-12
1.44831e-14
6.65299e-06
957527
732075
1.03922e+07
7.1315e+06
1.5417e+07
4080.83
1.75205e-05
9.3999e-06
7.68595e-05
0.000398722
0.00541902
18.2056
0.775466
0.00429513
0.000105219
2.75547e-06
1.45909e-06
3.76537e-08
2.14645e-05
3.22047e-07
4.44579e-09
6.62522e-10
3.907e-13
1.17049e-14
1.07604e-14
1.10347e-14
1.11872e-14
1.13063e-14
1.21138e-14
1.13938e-14
1.13919e-14
1.3131e-14
1.14119e-14
1.1002e-14
1.10269e-14
1.07543e-14
1.10891e-14
1.16492e-14
1.37969e-14
2.22351e-16
3.49199e-11
1.25571e-07
2.2352e-07
5.27882e-07
7.46164e-08
7.22147e-09
1.49611e-10
1.67869e-13
1.31181e-14
1.26541e-14
1.2592e-14
1.33496e-11
1679.56
5981.58
549403
5.08197e+06
6.33297e+06
2.46126e+06
1.2644e+07
565.989
3.99748e-07
1.32286e-14
2.74776e-16
0.000147126
0.00571621
0.151727
0.0128911
0.00332944
0.000526505
9.71771e-05
8.6599e-05
4.02707e-06
2.14653e-05
3.22299e-07
4.4431e-09
6.61626e-10
3.87557e-13
1.16593e-14
1.0725e-14
1.09173e-14
1.09824e-14
1.11032e-14
1.19748e-14
1.1351e-14
1.1354e-14
1.3101e-14
1.1475e-14
1.09278e-14
1.27844e-14
1.13431e-14
1.13218e-14
1.17299e-14
1.29913e-14
3.78308e-10
5.26433e-08
7.05387e-06
1.33556e-05
0.000608338
1.11795e-06
3.62663e-09
8.91994e-11
2.71734e-13
1.77948e-14
1.36978e-14
1.79157e-10
1.10453e-07
6.25627e-06
16.688
4.82745e+06
9.25495e+06
1.14513e+07
1.22294e+07
2.49126e+07
99492.6
0.0183133
0.00379444
0.0502577
0.961943
22.1103
181.502
4.30963
0.481388
0.0156765
8.86512e-06
1.706e-07
7.87261e-08
2.14609e-05
3.22041e-07
4.45865e-09
6.66274e-10
3.93342e-13
1.17016e-14
1.07568e-14
1.10162e-14
1.11648e-14
1.13018e-14
1.21838e-14
1.08324e-14
1.07905e-14
1.16169e-14
1.15304e-14
1.34188e-14
1.14048e-14
1.05874e-14
1.06036e-14
1.06785e-14
1.20487e-14
1.21106e-14
2.9728e-14
2.74207e-12
4.91735e-12
7.44078e-10
3.9457e-10
2.65146e-12
2.8144e-14
1.31166e-14
1.16306e-14
1.10362e-14
5.20875e-12
3.53575e-14
145319
758297
7.97974e+06
9.28432e+06
9.52185e+06
1.01243e+07
6.19004e+06
3.3554
6.13644e-08
3.03595e-12
1.14159e-14
0.107726
0.33341
0.622046
0.018575
0.0026269
0.000361332
2.31008e-05
1.85684e-06
3.48537e-08
2.14618e-05
3.22302e-07
4.45517e-09
6.64974e-10
3.88954e-13
1.16425e-14
1.07079e-14
1.08972e-14
1.10277e-14
1.11445e-14
1.19224e-14
1.07957e-14
1.07442e-14
1.12396e-14
1.12775e-14
1.32231e-14
1.12493e-14
1.06495e-14
1.18412e-14
1.14058e-14
1.1448e-14
1.08183e-14
5.35007e-12
3.0181e-10
4.70487e-10
8.74008e-06
1.16559e-07
2.04318e-10
2.43682e-13
1.31892e-14
1.14507e-14
3.5676e-06
0.000508229
16.3508
216.332
4.38741e+06
9.92151e+06
1.13063e+07
1.21583e+07
1.36174e+07
6.86595e+06
69.1151
271.161
717.036
166.595
746.879
1261.14
391.246
27.0177
2.35285
0.106695
6.20013e-05
5.90094e-09
1.53882e-11
2.14595e-05
3.22179e-07
4.47061e-09
6.68825e-10
4.01094e-13
1.19256e-14
1.1007e-14
1.09202e-14
1.1236e-14
1.28187e-14
1.12064e-14
1.04409e-14
1.19754e-14
1.19483e-14
1.19368e-14
1.19855e-14
1.2781e-14
1.1166e-14
1.06483e-14
1.30275e-14
1.19697e-14
1.15896e-14
1.2556e-14
1.21093e-14
1.82354e-14
4.08764e-14
2.83318e-14
1.62102e-14
1.30237e-14
1.19619e-14
1.41798e-13
0.025659
3.23292
9.95179e+06
141540
7.86604e+06
8.99035e+06
9.94067e+06
9.99999e+06
1.00057e+07
6.96467e+06
769.512
0.427867
1.55053e-06
1.40418
3.67594
0.355912
0.554322
0.00178042
0.00025978
3.21709e-06
3.91269e-07
1.32968e-09
8.53025e-09
2.14603e-05
3.22423e-07
4.46722e-09
6.67524e-10
3.97411e-13
1.18148e-14
1.0878e-14
1.07966e-14
1.11433e-14
1.27394e-14
1.10977e-14
1.03979e-14
1.19285e-14
1.18575e-14
1.19299e-14
1.25087e-14
1.10377e-14
1.08445e-14
1.16081e-14
1.17162e-14
1.15731e-14
1.15265e-14
1.64062e-14
3.20519e-14
8.34796e-14
1.63638e-10
3.27835e-12
4.97787e-14
1.29212e-14
1.15302e-14
1.31456e-14
1.11379e-14
0.0249121
253755
3.10786e+06
9.00377e+06
1.07156e+07
1.24089e+07
1.25846e+07
9.88777e+06
7.26094e+06
2.96242e+06
29810.4
24778.1
17076.9
7931.37
1444.14
619.644
3.63464
1.18472
0.0261998
0.000302996
2.27474e-07
1.34285e-09
2.14567e-05
3.22189e-07
4.48291e-09
6.71471e-10
3.93727e-13
1.15985e-14
1.08759e-14
1.18137e-14
1.11759e-14
1.09238e-14
1.10733e-14
1.11928e-14
1.26457e-14
1.12068e-14
1.1045e-14
1.17029e-14
1.1828e-14
1.39486e-14
1.13819e-14
1.10042e-14
1.19375e-14
1.18686e-14
1.40214e-14
1.18686e-14
1.1634e-14
1.47221e-14
1.20697e-14
1.16861e-14
1.44674e-14
1.1839e-14
1.11815e-14
6.87654e-16
0.0279346
189882
2.40961e+06
8.18473e+06
9.35071e+06
1.04683e+07
1.02543e+07
9.70452e+06
6.53589e+06
105308
13281.2
3.47632
71.4688
2.32781
0.0860788
0.0345592
0.0342345
0.00148157
7.15674e-06
1.53784e-07
8.86829e-08
7.31603e-08
2.14576e-05
3.22433e-07
4.47845e-09
6.70268e-10
3.90897e-13
1.17777e-14
1.09385e-14
1.11342e-14
1.13627e-14
1.19334e-14
1.10587e-14
1.1023e-14
1.2909e-14
1.11401e-14
1.09368e-14
1.15064e-14
1.17008e-14
1.38987e-14
1.14947e-14
1.08744e-14
1.19854e-14
1.1881e-14
1.18703e-14
1.26143e-14
1.20462e-14
1.96296e-14
1.38723e-14
1.16073e-14
1.42358e-14
1.19648e-14
1.11352e-14
5.68658e-14
3.57106e-17
8.42509e+06
8.35197e+06
9.99172e+06
1.15455e+07
1.30557e+07
1.29584e+07
9.90199e+06
3.63969e+06
798576
54807.8
37106.9
30091
4522.42
169.944
90.7707
48.873
2.69628
0.000411037
3.58563e-06
1.28949e-07
6.09775e-08
2.14559e-05
3.2232e-07
4.50638e-09
6.75908e-10
3.95557e-13
1.18545e-14
1.15579e-14
1.07918e-14
1.07219e-14
1.09658e-14
1.15193e-14
1.10114e-14
1.09146e-14
1.30501e-14
1.19364e-14
1.1543e-14
1.1864e-14
1.26009e-14
1.19009e-14
1.18672e-14
1.35002e-14
1.25712e-14
1.23414e-14
1.40143e-14
1.18443e-14
1.1189e-14
1.38295e-14
1.13655e-14
1.1093e-14
1.11596e-14
1.02056e-14
1.0789e-09
262350
381509
5.91809e+06
7.09186e+06
8.64134e+06
9.79896e+06
9.16551e+06
6.83196e+06
2.32445e+06
208573
31624.8
699.954
12.8277
3.62969
0.0196237
0.463777
0.0689836
4.35168e-06
0.000628002
3.58605e-05
1.21488e-07
1.04917e-07
2.14566e-05
3.22551e-07
4.50231e-09
6.74505e-10
3.92573e-13
1.18277e-14
1.15159e-14
1.09163e-14
1.0889e-14
1.0888e-14
1.1532e-14
1.09799e-14
1.08869e-14
1.29922e-14
1.18905e-14
1.14577e-14
1.2005e-14
1.19883e-14
1.20588e-14
1.20353e-14
1.24922e-14
1.3033e-14
1.32594e-14
1.39314e-14
1.18893e-14
1.07692e-14
1.2723e-14
1.11279e-14
1.0779e-14
1.16398e-14
1.11821e-17
4.3698e-09
23707.5
199176
7.51366e+06
8.38894e+06
1.04607e+07
1.17357e+07
1.0802e+07
7.95046e+06
3.83548e+06
472788
90840.3
31920.1
1268.4
132.002
3.70514
0.0112961
0.163261
3.22587e-07
2.93892e-05
1.48526e-06
7.30657e-07
4.95682e-07
2.14539e-05
3.22343e-07
4.51627e-09
6.78135e-10
3.97092e-13
1.18669e-14
1.15513e-14
1.09148e-14
1.08645e-14
1.12204e-14