/*--------------------------------*- C++ -*----------------------------------*\
| =========                 |                                                 |
| \\      /  F ield         | OpenFOAM: The Open Source CFD Toolbox           |
|  \\    /   O peration     | Version:  4.1                                   |
|   \\  /    A nd           | Web:      www.OpenFOAM.org                      |
|    \\/     M anipulation  |                                                 |
\*---------------------------------------------------------------------------*/
FoamFile
{
    version     2.0;
    format      ascii;
    class       surfaceScalarField;
    location    "11";
    object      phi;
}
// * * * * * * * * * * * * * * * * * * * * * * * * * * * * * * * * * * * * * //

dimensions      [0 3 -1 0 0 0 0];

internalField   nonuniform List<scalar> 
11516
(
9.97927e+06
-2746.55
28537.3
9.85873e+06
11835.1
168339
9.67135e+06
11265
234298
9.43119e+06
10988.2
287204
9.14096e+06
11010
338302
8.7979e+06
11244.5
392800
8.39744e+06
11728
452547
7.93467e+06
12469.8
518219
7.40503e+06
13603.5
589777
6.80485e+06
15157.7
666171
6.13838e+06
16873.4
742926
5.42553e+06
19268.2
809138
4.72072e+06
24861.4
840712
4.12541e+06
26995.8
793340
3.88674e+06
44845.4
494939
4.37244e+06
136813
-246836
5.77163e+06
195748
-1.29545e+06
7.10645e+06
-992660
-296218
9.52775e+06
-1.06439e+06
-1.33989e+06
1.2034e+07
-1.49328e+06
-995029
1.33543e+07
-849583
-468024
1.43077e+07
593876
-1.52357e+06
1.60221e+07
-215291
-1.48392e+06
1.85434e+07
-1.42476e+06
-1.083e+06
2.172e+07
-1.44708e+06
-1.72484e+06
2.37812e+07
-369928
-1.68524e+06
2.551e+07
402306
-2.13678e+06
2.55525e+07
1.30242e+06
-1.37831e+06
2.54787e+07
286166
-236150
2.38375e+07
-215119
1.78224e+06
2.21165e+07
-1.19841e+06
2.66766e+06
1.86768e+07
-206209
3.53655e+06
1.44257e+07
-345887
4.59349e+06
1.12594e+07
-1.71177e+06
4.86785e+06
8.28524e+06
-1.38524e+06
4.17203e+06
2.82535e+06
102312
5.06205e+06
-3.10537e+06
-138985
5.73115e+06
-8.55004e+06
-780429
5.85898e+06
-1.3382e+07
-1.4293e+06
5.89409e+06
-1.74451e+07
-2.01689e+06
5.75322e+06
-2.02401e+07
-2.58195e+06
5.17879e+06
-2.1146e+07
-3.30852e+06
4.21388e+06
-1.91934e+07
-4.70073e+06
2.90987e+06
-1.39357e+07
-6.17593e+06
1.47986e+06
-4.30398e+06
-4.59542e+06
-4.70139e+06
1.25041e+06
-4.97302e+06
-756725
-1.19289e+07
-1.54073e+06
1.45153e+07
-2.54456e+07
-1.25501e+06
1.48204e+07
-3.40282e+07
-3.03866e+06
1.19076e+07
-3.73738e+07
4.0791e+06
-112759
-8.86585e+06
-5.85726e+06
-2.20418e+07
2.42439e+07
-1.04956e+07
-2.22584e+07
3.92962e+07
-1.11975e+06
-1.3649e+07
823978
-2.76692e+07
9.97288e+06
28488.5
9.85641e+06
168759
9.67192e+06
234177
9.434e+06
287001
9.14547e+06
338240
8.8036e+06
393046
8.40406e+06
453068
7.942e+06
519097
7.41285e+06
591078
6.81391e+06
667410
6.1484e+06
743994
5.43793e+06
808280
4.73198e+06
838159
4.12393e+06
782604
3.83593e+06
508527
4.30217e+06
-141497
5.22747e+06
-629067
5.70918e+06
-1.44683e+06
6.79572e+06
-2.12952e+06
7.83563e+06
-2.52021e+06
8.89355e+06
-1.89045e+06
1.05165e+07
-978976
1.12444e+07
-918955
1.23016e+07
-2.45696e+06
1.26172e+07
-1.75305e+06
1.33799e+07
-1.12817e+06
1.34075e+07
375526
1.17482e+07
2.9611e+06
8.8849e+06
3.1001e+06
3.64249e+06
4.80515e+06
-5.18028e+06
7.44778e+06
-1.01327e+07
4.80015e+06
-1.23026e+07
1.9365e+06
-1.48431e+07
910362
-1.71222e+07
902385
-1.78838e+07
796169
-1.81096e+07
-35460.5
-1.80108e+07
-1.03356e+06
-1.73726e+07
-2.2289e+06
-1.6335e+07
-3.19004e+06
-1.45093e+07
-4.45586e+06
-1.16818e+07
-6.06536e+06
-6.94057e+06
-9.19978e+06
-789458
-1.20514e+07
5.77443e+06
-1.10099e+07
9.73183e+06
-8.79374e+06
1.41292e+06
6.89517e+06
-1.45481e+07
1.49209e+07
-1.84896e+07
1.34353e+06
-3.99824e+06
-1.02189e+07
1.24192e+07
-2.20607e+07
2.28904e+07
-2.06625e+07
3.45756e+07
-1.26472e+07
-2.59906e+07
1.00284e+07
-2902.09
10942.5
1.00751e+07
13207.1
171648
1.00877e+07
11961.3
269572
1.00737e+07
11229.6
348941
1.0031e+07
10924.9
429343
9.95688e+06
10824.2
516736
9.8476e+06
10886.5
613542
9.69858e+06
11184.6
721552
9.50316e+06
11745.6
842641
9.25313e+06
12386.5
976565
8.93952e+06
12815
1.12065e+06
8.55287e+06
13240.3
1.26658e+06
8.08565e+06
15040.8
1.39306e+06
7.54904e+06
7427.97
1.45111e+06
6.81764e+06
26024.4
1.35586e+06
5.78277e+06
80720.9
889509
5.22009e+06
-47924.3
-504066
6.90213e+06
-148970
-1.66521e+06
5.40344e+06
316440
-53021.8
3.7566e+06
249383
457916
3.20164e+06
124306
19616.4
2.34805e+06
40852.1
-627339
2.59847e+06
-518915
-1.18495e+06
5.79359e+06
-1.37867e+06
-2.85602e+06
8.45898e+06
-1.22746e+06
-3.14301e+06
1.22074e+07
-1.84034e+06
-3.60585e+06
1.49799e+07
-3.35773e+06
-1.55919e+06
1.64951e+07
-4.56075e+06
1.68348e+06
1.64806e+07
-3.71965e+06
3.51896e+06
1.40461e+07
-3.00131e+06
7.26604e+06
7.90312e+06
-1.06864e+06
1.00586e+07
-525337
1.37478e+06
1.07171e+07
-7.74981e+06
891359
1.10862e+07
-1.43173e+07
56282.9
1.15853e+07
-2.17347e+07
-176045
1.19025e+07
-2.76914e+07
-405794
1.15046e+07
-3.16882e+07
-884017
1.06403e+07
-3.3772e+07
-1.28061e+06
9.21272e+06
-3.42371e+07
-1.31791e+06
7.64657e+06
-3.31055e+07
-1.07952e+06
5.69137e+06
-2.98318e+07
-501895
2.42017e+06
-2.42624e+07
580217
-1.78067e+06
-1.73947e+07
248961
-3.77896e+06
-9.95771e+06
-1.96746e+06
-3.6132e+06
-2.85967e+06
-3.76089e+06
-7.54262e+06
-874544
-6.44312e+06
3.86796e+06
-2.66176e+06
-5.94525e+06
2.2279e+07
-5.0123e+06
-5.79592e+06
2.29954e+07
-4.40965e+06
-5.55044e+06
1.68215e+07
-1.32622e+07
-4.79316e+06
1.34922e+07
-4.27553e+07
-5.12361e+06
1.26953e+07
-6.10942e+07
-2.74387e+06
-814930
-5.52064e+07
2.46279e+06
-2.17878e+07
999323
-7.7066e+06
1.00212e+07
10786.5
1.00722e+07
171392
1.0088e+07
270055
1.00761e+07
349535
1.00351e+07
429830
9.96233e+06
517091
9.85427e+06
613817
9.70658e+06
721711
9.51267e+06
842766
9.26428e+06
976563
8.95171e+06
1.12053e+06
8.56509e+06
1.26575e+06
8.0969e+06
1.39113e+06
7.5199e+06
1.45161e+06
6.80951e+06
1.3494e+06
5.96174e+06
905909
5.87569e+06
-481974
5.88416e+06
-1.5043e+06
3.78938e+06
338336
1.50134e+06
77761
757696
-965937
968829
-1.0921e+06
1.53392e+06
-1.94415e+06
2.69986e+06
-4.88258e+06
4.25603e+06
-4.51003e+06
4.39403e+06
-3.12197e+06
428321
971227
-5.29368e+06
4.10752e+06
-1.15456e+07
5.67313e+06
-1.81221e+07
8.49739e+06
-2.13314e+07
9.79857e+06
-2.0398e+07
5.39937e+06
-1.70377e+07
-341939
-1.38279e+07
-2.06752e+06
-1.14213e+07
-1.54611e+06
-1.03573e+07
-593910
-1.06245e+07
-628227
-1.08172e+07
-2.12887e+06
-9.88283e+06
-4.49346e+06
-6.97883e+06
-7.14502e+06
-2.01662e+06
-9.80246e+06
5.67561e+06
-1.2878e+07
1.41478e+07
-1.70664e+07
1.92785e+07
-1.87579e+07
1.90634e+07
-1.42895e+07
1.03735e+07
-6.38146e+06
394994
1.10627e+07
-2.13516e+06
1.17206e+07
-8.1606e+06
1.75353e+06
-2.14089e+07
-1.8015e+06
-4.58149e+07
-2.63376e+06
-6.17443e+07
-7.32026e+06
-5.53675e+07
-1.6495e+07
-6.13486e+06
1.00023e+07
-2946.41
19351.1
9.9816e+06
12981.4
244412
9.91958e+06
12257.3
382995
9.82882e+06
11857.4
491081
9.71391e+06
11780.3
596510
9.57625e+06
11881.7
708240
9.41678e+06
12157.9
829096
9.23529e+06
12641.1
962153
9.0315e+06
13326.7
1.10911e+06
8.80063e+06
13998.2
1.27345e+06
8.53451e+06
14411.6
1.45576e+06
8.21768e+06
14476.6
1.65677e+06
7.82691e+06
14180.1
1.86899e+06
7.29802e+06
8954.46
2.0843e+06
6.4786e+06
-5474.38
2.32313e+06
4.94241e+06
15769.5
2.59482e+06
2.09079e+06
-522664
3.09044e+06
-1.41242e+06
-1.00317e+06
3.02665e+06
-5.10398e+06
-222849
3.89635e+06
-7.05702e+06
-151685
2.59587e+06
-7.46768e+06
-28499.2
511902
-7.03856e+06
22387.6
-1.02815e+06
-5.75852e+06
-791774
-1.60122e+06
-3.37129e+06
-3.02885e+06
-2.07179e+06
-6.09611e+06
-1.9325e+06
1.50476e+06
-8.5434e+06
-1.84722e+06
507240
-1.02171e+07
-1.21302e+06
1.24486e+06
-1.22868e+07
-1.15107e+06
4.92095e+06
-1.62416e+07
-1.14766e+06
8.79824e+06
-2.14268e+07
-13200.9
1.27146e+07
-2.80391e+07
1.77746e+06
1.51783e+07
-3.26231e+07
2.07972e+06
1.33234e+07
-3.47901e+07
3.16192e+06
1.01846e+07
-3.9581e+07
4.88116e+06
1.15846e+07
-4.35723e+07
2.57806e+06
1.33941e+07
-4.48792e+07
1.40792e+06
1.14646e+07
-4.3813e+07
973108
8.64306e+06
-4.09951e+07
918071
5.54177e+06
-3.64346e+07
1.27376e+06
1.93149e+06
-3.0199e+07
1.72466e+06
-2.19591e+06
-2.29948e+07
2.18284e+06
-6.829e+06
-1.68137e+07
3.86667e+06
-1.16156e+07
-1.3094e+07
5.08124e+06
-1.23177e+07
-9.09477e+06
4.12356e+06
-1.10613e+07
-8.06219e+06
2.56028e+06
-1.09309e+07
-1.69309e+07
-1.99942e+06
1.47195e+07
-1.78743e+07
-3.40405e+06
2.65843e+07
-1.95936e+07
-5.2855e+06
2.98492e+07
-2.28022e+07
-3.60682e+06
2.33522e+07
-5.41431e+06
-4.75286e+06
288898
2.59913e+07
-9.56447e+06
-9.35159e+06
1.71062e+07
-6.82778e+06
1.47014e+07
-5.4188e+06
7.67896e+06
-7.01057e+06
590823
-7.14216e+06
9.99501e+06
19483
9.97916e+06
244894
9.92028e+06
383251
9.83184e+06
491365
9.71869e+06
596823
9.58239e+06
708556
9.42407e+06
829413
9.24364e+06
962423
9.04094e+06
1.10929e+06
8.81112e+06
1.27336e+06
8.54597e+06
1.45524e+06
8.23041e+06
1.65483e+06
7.83496e+06
1.86559e+06
7.28986e+06
2.08311e+06
6.42582e+06
2.30552e+06
4.93658e+06
2.52466e+06
830884
3.19528e+06
-4.02203e+06
2.39741e+06
-6.72367e+06
2.84667e+06
-8.23149e+06
1.45906e+06
-8.53371e+06
-661184
-6.80756e+06
-2.71459e+06
-4.93845e+06
-4.40092e+06
-9.86146e+06
-2.84284e+06
-1.76255e+07
1.28496e+06
-2.30286e+07
289581
-2.51298e+07
1.78289e+06
-2.63307e+07
4.24875e+06
-2.80671e+07
6.45584e+06
-2.77029e+07
8.38516e+06
-2.51248e+07
9.20202e+06
-2.37719e+07
6.17989e+06
-2.32013e+07
2.28568e+06
-2.08283e+07
484036
-1.8653e+07
-1.07994e+06
-1.76132e+07
-181460
-1.53662e+07
-1.85147e+06
-1.36696e+07
-2.83643e+06
-1.07826e+07
-6.00662e+06
-6.06227e+06
-1.00228e+07
-556086
-1.30076e+07
5.59502e+06
-1.50608e+07
1.07949e+07
-1.70055e+07
1.24622e+07
-1.62217e+07
8.91262e+06
-8.22767e+06
3.04097e+06
-2.58327e+06
209581
1.02547e+07
-1.93876e+06
8.24823e+06
-765406
-3.39302e+06
7.20282e+06
-1.47556e+07
2.53602e+06
-7.68064e+06
-1.23604e+07
470469
-6.96092e+06
-1.43754e+07
-1.10993e+07
1.00045e+07
-2789.12
26702.6
9.98576e+06
13544.7
316466
9.92277e+06
12481.3
496974
9.82683e+06
11861.7
637929
9.70129e+06
11718.2
774055
9.54694e+06
11824.4
916561
9.36323e+06
12177.5
1.06951e+06
9.15069e+06
12779.4
1.23497e+06
8.90797e+06
13633.9
1.41603e+06
8.63218e+06
14480
1.61669e+06
8.31527e+06
15153.8
1.84153e+06
7.94648e+06
14568
2.09613e+06
7.50295e+06
13477.4
2.38932e+06
6.94614e+06
5313.13
2.74216e+06
6.21615e+06
-29159
3.21748e+06
5.16835e+06
-84491.7
3.9093e+06
3.71e+06
-318118
5.06569e+06
1.23858e+06
-620179
6.25693e+06
-2.55428e+06
220849
7.55586e+06
-5.41198e+06
-57557.3
5.54005e+06
-6.89945e+06
143803
1.9342e+06
-7.8523e+06
479694
-407949
-8.61689e+06
484795
-1.19281e+06
-1.13353e+07
-390025
1.16186e+06
-1.64105e+07
-303371
6.83333e+06
-2.22202e+07
197856
5.95305e+06
-2.38089e+07
1.39707e+06
1.33921e+06
-2.35521e+07
1.14676e+06
3.64149e+06
-2.40968e+07
825707
8.72528e+06
-2.36459e+07
928163
1.15935e+07
-2.19072e+07
1.4083e+06
1.22259e+07
-1.88523e+07
1.199e+06
9.09881e+06
-1.69703e+07
4.03763e+06
4.2478e+06
-2.20412e+07
1.24898e+07
4.14209e+06
-2.64427e+07
8.41853e+06
9.39446e+06
-2.73348e+07
3.07025e+06
9.28371e+06
-2.62425e+07
3.10445e+06
4.52354e+06
-2.15822e+07
3.52488e+06
-2.41403e+06
-1.41894e+07
3.96197e+06
-9.22253e+06
-5.12754e+06
2.33331e+06
-1.3434e+07
-389789
861659
-1.25149e+07
860572
2.00282e+06
-1.50769e+07
2.27825e+06
2.56993e+06
-1.64119e+07
-2.42064e+06
3.81734e+06
-1.07542e+07
-1.34994e+07
4.46549e+06
-5.42408e+06
-2.64256e+07
741664
2.63626e+07
-3.02715e+07
-939733
3.08601e+07
-2.67973e+07
-1.90089e+06
2.77833e+07
-1.37913e+07
841430
8.7732e+06
-7.95873e+06
2.76164e+06
-9.32058e+06
1.52779e+07
-5.16126e+06
-2.84708e+07
4.4539e+07
-2.57961e+06
-1.27299e+07
3.58249e+07
5.87959e+06
-4.8557e+06
4.61009e+06
-2.86484e+07
9.99776e+06
26456.1
9.98269e+06
315442
9.92301e+06
497194
9.82945e+06
638516
9.7058e+06
774612
9.55296e+06
917019
9.37057e+06
1.06985e+06
9.15922e+06
1.23514e+06
8.91766e+06
1.41598e+06
8.64274e+06
1.61634e+06
8.32723e+06
1.84039e+06
7.95772e+06
2.09395e+06
7.51023e+06
2.38627e+06
6.92803e+06
2.7423e+06
6.07377e+06
3.22826e+06
4.67387e+06
3.9622e+06
2.41349e+06
5.23971e+06
-1.48875e+06
5.74554e+06
-4.21323e+06
5.9002e+06
-6.51397e+06
3.76896e+06
-7.04752e+06
143687
-6.61971e+06
-2.42304e+06
-8.40984e+06
-1.98617e+06
-1.35611e+07
1.98062e+06
-1.82939e+07
5.66579e+06
-2.12708e+07
3.32519e+06
-2.01156e+07
2.03136e+06
-1.9537e+07
4.86518e+06
-1.91876e+07
7.05172e+06
-1.8125e+07
8.40317e+06
-1.61272e+07
8.71709e+06
-1.53894e+07
6.63605e+06
-1.3521e+07
4.41185e+06
-8.56048e+06
7.92138e+06
-9.4646e+06
8.2444e+06
-1.40375e+07
7.50389e+06
-1.37809e+07
1.12297e+06
-8.73036e+06
-4.20757e+06
-1.82237e+06
-8.8334e+06
3.77396e+06
-1.32561e+07
6.36231e+06
-1.47821e+07
7.50933e+06
-1.42439e+07
6.82726e+06
-1.38819e+07
4.04267e+06
-9.93032e+06
-771527
696892
-8.42291e+06
5.32992e+06
-4.9373e+06
5.06996e+06
-1.6669e+06
2.2282e+06
-1.34898e+06
-3.66332e+06
-4.23695e+06
-9.69863e+06
1.73323e+06
-1.93045e+07
1.45235e+07
-1.55034e+07
1.40637e+07
-8.52545e+06
-2.46171e+07
1.00048e+07
-2775.63
30737
9.99344e+06
12481.6
380152
9.93984e+06
11942.9
602558
9.85502e+06
11538
774684
9.74192e+06
11409.2
939933
9.60062e+06
11476.2
1.11232e+06
9.43049e+06
11767.8
1.2966e+06
9.2304e+06
12277.2
1.49532e+06
8.99743e+06
12995.7
1.71293e+06
8.72661e+06
13737.3
1.9543e+06
8.40953e+06
14097.3
2.22624e+06
8.03646e+06
13521.9
2.53821e+06
7.59715e+06
12180
2.90527e+06
7.09251e+06
5186.16
3.35193e+06
6.55304e+06
-18191
3.92951e+06
6.05752e+06
-64900.7
4.69012e+06
5.84348e+06
-240801
5.75985e+06
5.48625e+06
-111239
6.98969e+06
4.29264e+06
383321
8.57684e+06
2.22084e+06
264177
7.54513e+06
238125
385143
3.9256e+06
-311373
682979
21399
236132
-336491
-1.07286e+06
-4.90775e+06
-1.05376e+06
7.62256e+06
-7.80193e+06
-290589
1.00201e+07
-9.66906e+06
86055.3
7.7045e+06
-1.25667e+07
1.30448e+06
2.92036e+06
-1.31698e+07
1.46406e+06
2.79921e+06
-1.26821e+07
678214
7.66272e+06
-1.00076e+07
550766
8.46618e+06
-6.10217e+06
425024
7.93611e+06
-2.72587e+06
100797
5.62318e+06
-773522
-259766
2.54897e+06
-751677
1.97217e+06
2.1182e+06
293734
1.8843e+06
6.45881e+06
1.35013e+06
3.12022e+06
5.13834e+06
3501.39
5.2348e+06
743472
199707
3.49238e+06
-5.96258e+06
416143
1.71373e+06
-1.10293e+07
2.90189e+06
-901072
-1.50701e+07
4.22222e+06
-887749
-1.29848e+07
839654
-203874
-1.15271e+07
-2.4542e+06
-1.22057e+06
-1.21176e+07
-5.97154e+06
1.77817e+06
-9.61668e+06
-1.59418e+07
5.25467e+06
-1.42482e+06
-1.95218e+07
4.95951e+06
2.43955e+07
-2.12179e+07
5.01467e+06
2.6864e+07
-1.2541e+07
394133
1.7983e+07
-2.94167e+06
3.21157e+06
-5.06473e+06
-1.01462e+07
2.7004e+06
-5.81349e+06
-2.69359e+07
-459259
-1.18455e+07
-3.11909e+07
85800.8
-9.56638e+06
-4.17071e+07
4.95456e+06
-224786
1.95856e+06
-9.38743e+06
9.99794e+06
31016.2
9.99104e+06
380833
9.94035e+06
603000
9.8578e+06
775213
9.74647e+06
940527
9.60658e+06
1.11294e+06
9.43768e+06
1.29724e+06
9.2387e+06
1.49598e+06
9.00676e+06
1.71365e+06
8.73691e+06
1.9551e+06
8.42089e+06
2.22684e+06
8.0478e+06
2.53873e+06
7.60595e+06
2.90545e+06
7.08203e+06
3.35596e+06
6.46221e+06
3.94909e+06
5.77134e+06
4.74517e+06
4.91853e+06
6.03773e+06
3.68138e+06
7.0621e+06
2.45397e+06
7.74849e+06
399122
6.35596e+06
-903445
2.24645e+06
-1.22192e+06
-1.04143e+06
-245554
-2.97911e+06
-4.51741e+06
5.2789e+06
-7.93265e+06
8.78015e+06
-1.16665e+07
7.12551e+06
-1.17754e+07
3.38603e+06
-1.06883e+07
5.24823e+06
-9.58283e+06
6.63513e+06
-7.79254e+06
7.19443e+06
-4.79628e+06
6.15908e+06
-3.17751e+06
5.10959e+06
-2.66745e+06
3.60868e+06
-1.3781e+06
8.59644e+06
-4.65573e+06
1.34199e+07
-4.12461e+06
1.01313e+07
-1.04127e+06
3.3744e+06
872295
-2.55121e+06
1.64601e+06
-7.87803e+06
919333
-1.34565e+07
133461
-1.49226e+07
-1.57905e+06
-1.28487e+07
-5.386e+06
-1.15042e+07
-5.55482e+06
-8.41057e+06
-205012
20024
230384
9.18353e+06
2.59942e+06
6.38359e+06
2.1656e+06
1.68021e+06
1.8154e+06
-1.23946e+06
-2.61953e+06
-3.13486e+06
-1.84486e+07
-4.45166e+06
-3.10683e+07
-3.47093e+06
-3.70402e+07
1.90097e+06
-7.49792e+06
1.00049e+07
-2528.66
36752.2
1.0003e+07
13341
437510
9.96005e+06
12483.6
698143
9.8878e+06
11841.3
899292
9.78956e+06
11635.4
1.09151e+06
9.66562e+06
11685.5
1.29164e+06
9.51608e+06
12004.4
1.50458e+06
9.33993e+06
12581.9
1.73404e+06
9.13495e+06
13403.4
1.98527e+06
8.89661e+06
14339.6
2.26427e+06
8.61801e+06
14911.2
2.5795e+06
8.29251e+06
15131.2
2.94187e+06
7.92232e+06
13948.1
3.36457e+06
7.52488e+06
11567.2
3.86591e+06
7.16567e+06
-1447.87
4.47012e+06
6.92855e+06
-26690.6
5.18271e+06
7.07676e+06
-164481
6.06185e+06
7.51312e+06
-265248
7.08239e+06
8.30746e+06
-67067.3
8.16202e+06
8.20919e+06
71806
7.91049e+06
6.34306e+06
314465
6.08172e+06
3.0828e+06
596372
3.34612e+06
912357
-654267
2.45197e+06
-3.66366e+06
-213381
1.24623e+07
-4.53454e+06
116609
1.07734e+07
-4.9289e+06
-56781
8.15256e+06
-5.55029e+06
-203440
3.70789e+06
-5.49565e+06
752736
1.9229e+06
-5.42167e+06
514167
6.93823e+06
-3.0625e+06
126863
5.96952e+06
-512749
-27047.4
5.43146e+06
2.08315e+06
-191961
3.21874e+06
1.7859e+06
-56759.2
2.90329e+06
1.60115e+06
-1.78315e+06
4.10388e+06
1.67787e+06
179285
6.23554e+06
-194487
3.68672e+06
3.32285e+06
-1.4778e+06
3.65395e+06
-1.64362e+06
-2.51547e+06
1.41428e+06
-6.40912e+06
-3.76108e+06
-543729
-9.38867e+06
-3.56009e+06
-1.36885e+06
-1.39613e+07
-904113
-422596
-1.52466e+07
3.29905e+06
-375480
-1.54165e+07
4.37073e+06
-1.10235e+06
-1.21674e+07
3.74997e+06
48958.9
-9.23195e+06
-3.72648e+06
2.01044e+06
3.56094e+06
-6.18152e+06
8.14871e+06
1.82668e+07
-1.12196e+07
8.08183e+06
2.31136e+07
-3.38595e+06
-5.90592e+06
1.51786e+07
1.25003e+06
-8.58218e+06
-2.43056e+06
-1.70848e+06
-2.73812e+06
-1.39298e+06
-1.45422e+07
-1.36339e+06
1.46502e+06
-2.98999e+07
-182161
5.34214e+06
-4.28534e+07
3.47511e+06
8.66232e+06
1.17501e+06
3.30648e+07
9.99887e+06
36430.2
9.99981e+06
436076
9.95998e+06
698227
9.89003e+06
899826
9.79365e+06
1.09201e+06
9.67121e+06
1.29202e+06
9.52296e+06
1.50482e+06
9.34796e+06
1.73411e+06
9.144e+06
1.98514e+06
8.90673e+06
2.26388e+06
8.62903e+06
2.57864e+06
8.30485e+06
2.94e+06
7.93277e+06
3.3618e+06
7.52669e+06
3.86459e+06
7.12031e+06
4.4787e+06
6.79277e+06
5.21318e+06
6.61043e+06
6.24298e+06
6.29495e+06
7.3204e+06
6.16515e+06
8.03766e+06
5.42681e+06
7.49272e+06
3.36426e+06
5.05111e+06
1.08209e+06
2.43073e+06
-842568
-1.09977e+06
-3.11192e+06
7.49542e+06
-3.95089e+06
9.74175e+06
-4.71574e+06
7.81468e+06
-5.19847e+06
3.63034e+06
-5.08993e+06
5.84864e+06
-4.17994e+06
6.18028e+06
-3.18619e+06
6.33048e+06
-941951
3.88597e+06
144155
3.84102e+06
-1.82467e+06
5.51673e+06
-5.52398e+06
1.05133e+07
-5.15361e+06
1.32539e+07
-716664
9.40717e+06
1.80903e+06
4.50396e+06
787700
-148332
-2.38349e+06
-5.31337e+06
-5.42419e+06
-1.18647e+07
-5.05642e+06
-1.57998e+07
-3.05501e+06
-1.52555e+07
-3.0928e+06
-1.26602e+07
-3.38901e+06
-8.40859e+06
-1.92375e+06
44480.8
4.01977e+06
1.04486e+07
1.03533e+07
6.7489e+06
6.30985e+06
-1.49512e+06
3.40623e+06
-7.91535e+06
4.60852e+06
-7.67149e+06
-5.54372e+06
3.77538e+06
-2.31131e+07
1.32938e+07
-2.49232e+07
6.95345e+06
1.87607e+07
1.00048e+07
-2511.68
38761.8
1.00115e+07
11932.4
484117
9.98043e+06
11636.4
782080
9.92253e+06
11244.5
1.00982e+06
9.84118e+06
11060.6
1.22606e+06
9.73714e+06
11070.3
1.45052e+06
9.61116e+06
11318.9
1.68805e+06
9.46315e+06
11798.2
1.94328e+06
9.29231e+06
12478.1
2.22159e+06
9.09543e+06
13213.6
2.53023e+06
8.86915e+06
13634.5
2.87675e+06
8.61114e+06
13569.1
3.27251e+06
8.32859e+06
12666.1
3.72751e+06
8.04507e+06
12096.9
4.25279e+06
7.81631e+06
4730.44
4.85512e+06
7.69586e+06
-4989.53
5.52418e+06
7.83397e+06
-90587.8
6.28361e+06
8.27335e+06
-259304
7.1721e+06
8.89235e+06
-252636
8.09835e+06
8.86663e+06
-21254.7
8.28478e+06
7.55727e+06
269069
7.56529e+06
4.4007e+06
616868
6.40834e+06
402525
642541
6.37169e+06
-971317
824548
1.31519e+07
-1.2126e+06
52171.9
1.09709e+07
-1.2604e+06
-34798.9
8.23087e+06
-1.32265e+06
-138441
3.86073e+06
-3.72587e+06
-92487.2
4.12716e+06
-5.64472e+06
803239
7.76456e+06
-4.54659e+06
-607840
5.43363e+06
-2.26148e+06
-700185
3.81897e+06
-2.13035e+06
20082.6
3.11545e+06
-6.63505e+06
1.05849e+06
6.36419e+06
-9.01469e+06
-213030
6.74859e+06
-3.89199e+06
-2.33309e+06
3.53125e+06
-1.86759e+06
-339354
1.72625e+06
-2.62749e+06
603518
-1.48106e+06
-2.83922e+06
-553313
-5.69736e+06
-2.10115e+06
-1.44248e+06
-8.75491e+06
-4.80165e+06
87198.7
-1.14626e+07
-1.05805e+07
1.93292e+06
-1.14427e+07
-1.2765e+07
-28457.9
-1.30908e+07
-1.06429e+07
-1.3844e+06
-1.26993e+07
-6.8601e+06
-485578
-1.25699e+07
-6.86273e+06
-815700
4.20151e+06
-1.70996e+06
1.58096e+06
1.11649e+07
-1.80215e+06
2.56156e+06
2.0286e+07
991699
-2.7049e+06
1.46065e+07
6.69596e+06
-9.22461e+06
97826.6
1.63484e+07
-4.24334e+06
-8.19334e+06
2.5541e+07
752147
-8.97785e+06
3.13446e+07
704758
-1.58496e+06
2.67598e+07
3.78855e+06
9.45463e+06
3.34849e+06
-1.33495e+07
9.99849e+06
39180.6
1.0009e+07
485000
9.98065e+06
782706
9.92491e+06
1.01055e+06
9.84528e+06
1.22688e+06
9.74261e+06
1.45135e+06
9.61781e+06
1.68891e+06
9.47082e+06
1.9442e+06
9.30088e+06
2.22264e+06
9.10487e+06
2.53142e+06
8.87965e+06
2.87803e+06
8.62306e+06
3.27326e+06
8.34065e+06
3.72781e+06
8.05396e+06
4.25305e+06
7.79928e+06
4.86038e+06
7.62345e+06
5.54413e+06
7.57377e+06
6.38601e+06
7.44932e+06
7.38573e+06
7.27131e+06
8.17391e+06
6.84828e+06
8.15682e+06
5.44476e+06
7.0221e+06
3.1909e+06
5.71213e+06
-926128
4.05804e+06
-545208
8.19467e+06
-420391
9.65739e+06
-362088
7.70216e+06
-1.32434e+06
4.31219e+06
-3.0077e+06
7.28998e+06
-3.5222e+06
7.35101e+06
-4.25377e+06
6.39908e+06
-5.23456e+06
4.1948e+06
-5.3072e+06
3.9244e+06
-5.43971e+06
6.73547e+06
-4.36412e+06
9.33272e+06
-3.17985e+06
9.82953e+06
-1.51121e+06
7.45298e+06
-309295
3.88879e+06
-838177
-261114
-3.55503e+06
-4.16623e+06
-6.15516e+06
-9.24515e+06
-7.37965e+06
-1.25967e+07
-8.48936e+06
-1.41099e+07
-1.10684e+07
-1.14563e+07
-1.34889e+07
-6.55347e+06
-1.36252e+07
-1.00619e+06
-1.81306e+06
-454020
7.32256e+06
-503585
9.26124e+06
-6.84953e+06
4.26268e+06
-1.27599e+07
4.01936e+06
-1.20811e+07
1.81049e+07
-9.98584e+06
3.35992e+07
-1.56154e+06
3.64114e+07
7.97683e+06
-2.44795e+07
1.00044e+07
-2201.52
43757
1.00223e+07
13099.3
524564
1.00043e+07
12532.1
854895
9.96179e+06
11878.3
1.1065e+06
9.89848e+06
11609.6
1.3443e+06
9.81604e+06
11604.3
1.58988e+06
9.71587e+06
11895.7
1.84853e+06
9.59846e+06
12480.2
2.12575e+06
9.46445e+06
13328
2.42634e+06
9.31336e+06
14271.9
2.75731e+06
9.14313e+06
15044.7
3.12656e+06
8.95524e+06
15180.7
3.54242e+06
8.75785e+06
15058
4.01238e+06
8.57569e+06
14476.4
4.54046e+06
8.44363e+06
11609.8
5.12407e+06
8.41096e+06
9395.62
5.75517e+06
8.53223e+06
-33259.4
6.42546e+06
8.92286e+06
-152498
7.20378e+06
9.46248e+06
-255830
8.04815e+06
9.64941e+06
-169156
8.53977e+06
8.92577e+06
46679.7
8.47073e+06
6.87528e+06
468509
8.25538e+06
4.07793e+06
897948
8.46167e+06
3.8367e+06
1.36463e+06
1.21332e+07
3.86655e+06
120800
1.08164e+07
3.54452e+06
26196.3
8.50705e+06
-180418
631842
6.6911e+06
-4.41334e+06
916802
7.02239e+06
-5.47809e+06
762793
7.69873e+06
-7.16165e+06
7961.21
6.88267e+06
-9.51802e+06
325038
5.84426e+06
-1.16355e+07
469282
4.78425e+06
-1.16531e+07
1.34202e+06
5.17966e+06
-1.37308e+07
1.34907e+06
7.7037e+06
-1.40173e+07
-936507
4.96244e+06
-9.80921e+06
-2.73043e+06
392118
-5.40955e+06
-2.1971e+06
-3.66067e+06
-4.7843e+06
-1.44086e+06
-4.94742e+06
-6.76113e+06
260916
-7.18128e+06
-1.0106e+07
1.46072e+06
-9.63236e+06
-1.12516e+07
367831
-1.05859e+07
-1.07634e+07
-2.16024e+06
-1.12152e+07
-9.8344e+06
-2.04462e+06
-1.1314e+07
-1.0098e+07
165142
-1.20955e+07
-8.2516e+06
730325
1.77062e+06
-3.93511e+06
-333199
7.17034e+06
1.25408e+06
1.95231e+06
1.30255e+07
5.12791e+06
1.74508e+06
8.77809e+06
4.35321e+06
808940
-227136
-5.35616e+06
2.68986e+06
-1.36471e+06
-1.44319e+07
2.10009e+06
-2.08321e+06
-1.66597e+07
691874
170364
-1.90591e+07
74132.6
1.19726e+07
221475
4.85023e+06
9.99923e+06
43393.6
1.00189e+07
522887
1.00038e+07
854870
9.96349e+06
1.10698e+06
9.90201e+06
1.34475e+06
9.82108e+06
1.59024e+06
9.72218e+06
1.84878e+06
9.60588e+06
2.12587e+06
9.4728e+06
2.42634e+06
9.32259e+06
2.75714e+06
9.15346e+06
3.12601e+06
8.96679e+06
3.54107e+06
8.77125e+06
4.00973e+06
8.58674e+06
4.53658e+06
8.44618e+06
5.12343e+06
8.37862e+06
5.76064e+06
8.4233e+06
6.47664e+06
8.48581e+06
7.34228e+06
8.40072e+06
8.18408e+06
7.99182e+06
8.57167e+06
6.97681e+06
8.27001e+06
5.52698e+06
7.80347e+06
3.26547e+06
7.39773e+06
3.49627e+06
9.34708e+06
3.08776e+06
1.01235e+07
1.4967e+06
9.15745e+06
-2.13926e+06
8.30415e+06
-2.69652e+06
8.53307e+06
-3.20302e+06
8.45795e+06
-4.35779e+06
7.50433e+06
-6.40111e+06
6.53437e+06
-7.6912e+06
5.75837e+06
-5.56307e+06
6.09944e+06
-1.78904e+06
7.04355e+06
1.32632e+06
5.87931e+06
2.07461e+06
4.02089e+06
2.31576e+06
1.42589e+06
1.55578e+06
-1.02442e+06
810676
-3.22475e+06
-301914
-6.66199e+06
-3.13317e+06
-9.34222e+06
-8.58815e+06
-1.06847e+07
-1.22705e+07
-9.66665e+06
-9.66354e+06
-8.90376e+06
-3.6366e+06
-6.3229e+06
73686.9
-4.65415e+06
2.50603e+06
-1.21717e+06
-1.02716e+06
-1.81379e+06
-1.0126e+07
-3.05237e+06
-1.7515e+07
-2.1459e+06
-2.34011e+07
-1.99542e+06
-2.49034e+07
675392
-3.11753e+07
1.44393e+07
2.95049e+06
1.00045e+07
-2178.25
43776.9
1.00312e+07
11504.2
552893
1.00269e+07
11469
913639
1.00013e+07
11088
1.18594e+06
9.95799e+06
10861.3
1.4417e+06
9.89913e+06
10842
1.70449e+06
9.82654e+06
11099.8
1.97984e+06
9.74231e+06
11633.4
2.27304e+06
9.64761e+06
12397.9
2.58918e+06
9.54316e+06
13221.7
2.93421e+06
9.42915e+06
13803.4
3.31498e+06
9.30721e+06
13777.3
3.7385e+06
9.18578e+06
13425
4.20914e+06
9.08414e+06
12646.6
4.72606e+06
9.03086e+06
12844.9
5.28593e+06
9.0584e+06
11768
5.87649e+06
9.19505e+06
-52.9483
6.48592e+06
9.53445e+06
-64392.7
7.16339e+06
1.00525e+07
-163738
7.91677e+06
1.04645e+07
-184212
8.55866e+06
1.03596e+07
-86690.7
8.86922e+06
9.51902e+06
195273
9.10308e+06
7.80008e+06
654734
9.58721e+06
7.33469e+06
1.13434e+06
1.14617e+07
6.40759e+06
501592
1.11218e+07
5.07331e+06
123461
9.5485e+06
2.99542e+06
-74292.8
8.62735e+06
2.63895e+06
-234910
7.47503e+06
2.869e+06
56847.9
7.32862e+06
2.3815e+06
252696
7.07147e+06
1.31172e+06
359982
6.55415e+06
-318608
564588
5.95988e+06
-1.93268e+06
980972
6.00207e+06
-992056
658542
6.31188e+06
854017
-345762
3.63734e+06
1.43007e+06
-1.10406e+06
1.02597e+06
984982
-1.72283e+06
-1.48855e+06
-663546
-774673
-2.62824e+06
-4.78931e+06
1.24717e+06
-4.40961e+06
-8.17657e+06
988657
-7.30739e+06
-9.14552e+06
-424478
-9.21673e+06
-1.06037e+07
-1.57096e+06
-8.0927e+06
-1.38074e+07
-1.73861e+06
-6.10903e+06
-1.80915e+07
-2.04693e+06
-5.48319e+06
-1.52528e+07
-1.14227e+06
217934
-1.35261e+07
1.39119e+06
4.10461e+06
-1.08252e+07
3.05544e+06
7.25942e+06
-1.11852e+07
2.82002e+06
6.28438e+06
-1.69692e+07
2.11635e+06
3.36093e+06
-2.3311e+07
1.75787e+06
3.07702e+06
-2.66678e+07
492008
688603
-2.19851e+07
147080
-4.63875e+06
-1.46478e+06
-1.79757e+06
-6.40266e+06
-519010
-5.19107e+06
9.99884e+06
44315.3
1.00286e+07
553831
1.00267e+07
914304
1.00031e+07
1.18673e+06
9.96148e+06
1.44258e+06
9.90396e+06
1.70538e+06
9.83255e+06
1.98074e+06
9.74932e+06
2.27398e+06
9.65544e+06
2.59018e+06
9.55175e+06
2.93531e+06
9.43871e+06
3.31592e+06
9.31821e+06
3.73895e+06
9.19866e+06
4.20808e+06
9.09785e+06
4.72378e+06
9.04192e+06
5.28345e+06
9.05501e+06
5.87642e+06
9.16597e+06
6.50806e+06
9.35959e+06
7.23759e+06
9.5055e+06
8.03992e+06
9.3937e+06
8.65722e+06
8.86511e+06
8.86412e+06
8.08747e+06
8.87872e+06
7.18368e+06
8.99457e+06
7.43935e+06
1.01506e+07
7.18096e+06
1.07164e+07
6.16965e+06
1.01314e+07
4.99773e+06
9.30238e+06
4.35394e+06
8.89225e+06
4.26195e+06
8.58322e+06
4.00192e+06
8.01187e+06
3.67444e+06
7.2619e+06
3.51148e+06
6.57458e+06
4.61483e+06
6.09524e+06
6.80098e+06
5.63158e+06
8.29278e+06
4.11843e+06
8.84489e+06
2.38467e+06
8.01882e+06
480777
7.29981e+06
-1.1767e+06
7.89338e+06
-2.68037e+06
6.58546e+06
-4.44158e+06
2.48348e+06
-5.66639e+06
-4.12737e+06
-5.60217e+06
-1.00936e+07
-5.41558e+06
-1.34948e+07
-7.54245e+06
-1.2275e+07
-8.68637e+06
-1.17041e+07
-3.8444e+06
-1.12888e+07
1.40878e+06
-1.25141e+07
2.20675e+06
-1.55365e+07
2.02425e+06
-1.88653e+07
2.88132e+06
-2.20162e+07
1.56542e+06
-1.82469e+07
-2.86699e+06
-2.55128e+06
-2.87597e+06
-2.26602e+06
1.00035e+07
-1840.29
47534.5
1.0042e+07
12804.7
575354
1.00519e+07
12575.6
960646
1.00433e+07
11913.2
1.25034e+06
1.00203e+07
11578.7
1.52091e+06
9.98534e+06
11518.9
1.79742e+06
9.94111e+06
11786
2.0855e+06
9.89017e+06
12375.9
2.39037e+06
9.83479e+06
13221.2
2.71671e+06
9.77642e+06
14143.7
3.06964e+06
9.71538e+06
14703.4
3.4547e+06
9.65361e+06
14677.7
3.87717e+06
9.59772e+06
13827.9
4.33873e+06
9.56148e+06
13015
4.83717e+06
9.57061e+06
12659.5
5.36633e+06
9.64205e+06
12567.8
5.91418e+06
9.81359e+06
14466.1
6.47535e+06
1.01176e+07
-15481.4
7.05783e+06
1.06254e+07
-70055.2
7.70853e+06
1.11756e+07
-127327
8.33532e+06
1.15669e+07
-110117
8.81595e+06
1.16126e+07
-1815.08
9.18458e+06
1.14055e+07
234211
9.63069e+06
1.15821e+07
566209
1.06165e+07
1.12368e+07
446195
1.08705e+07
1.04115e+07
93349.9
1.01925e+07
9.89467e+06
-134583
9.2916e+06
9.5573e+06
-337162
8.21333e+06
9.62915e+06
-238249
7.55666e+06
9.73757e+06
-54523.5
7.05939e+06
9.69961e+06
105495
6.5301e+06
9.52533e+06
253681
5.94157e+06
9.63588e+06
519617
5.46761e+06
1.0648e+07
574206
4.82744e+06
1.12714e+07
99558.7
2.97917e+06
1.16688e+07
-310084
926735
1.13981e+07
-506148
-820841
1.11749e+07
-426901
-2.18077e+06
1.03543e+07
-411706
-3.45552e+06
6.51595e+06
262005
-4.00725e+06
-2.44271e+06
2.31418e+06
-2.75859e+06
-1.04627e+07
2.41932e+06
-2.55443e+06
-1.31758e+07
478767
-3.91394e+06
-1.37469e+07
-759124
-4.16885e+06
-1.35725e+07
-860632
954983
-1.56108e+07
-238044
6.47704e+06
-1.7509e+07
1.57697e+06
7.70062e+06
-1.99315e+07
1.69486e+06
7.10427e+06
-2.42672e+07
929408
6.75601e+06
-2.9614e+07
61118.1
8.23588e+06
-3.59927e+07
-1.34911e+06
8.23494e+06
-4.36596e+07
-1.17843e+06
4.76857e+06
-1.86998e+07
-1.06414e+06
-2.9532e+07
-1.86952e+06
-1.26328e+06
9.99916e+06
47164.3
1.00385e+07
573554
1.00509e+07
960501
1.00444e+07
1.25072e+06
1.00231e+07
1.52132e+06
9.98964e+06
1.79777e+06
9.94666e+06
2.08578e+06
9.89676e+06
2.39058e+06
9.84222e+06
2.71685e+06
9.78445e+06
3.06969e+06
9.72423e+06
3.45449e+06
9.66365e+06
3.87626e+06
9.60937e+06
4.33656e+06
9.57553e+06
4.83347e+06
9.58319e+06
5.36141e+06
9.65527e+06
5.91168e+06
9.81435e+06