/*--------------------------------*- C++ -*----------------------------------*\
| =========                 |                                                 |
| \\      /  F ield         | OpenFOAM: The Open Source CFD Toolbox           |
|  \\    /   O peration     | Version:  4.1                                   |
|   \\  /    A nd           | Web:      www.OpenFOAM.org                      |
|    \\/     M anipulation  |                                                 |
\*---------------------------------------------------------------------------*/
FoamFile
{
    version     2.0;
    format      ascii;
    class       surfaceScalarField;
    location    "43";
    object      phi;
}
// * * * * * * * * * * * * * * * * * * * * * * * * * * * * * * * * * * * * * //

dimensions      [0 3 -1 0 0 0 0];

internalField   nonuniform List<scalar> 
11516
(
-4.74801e+10
-1.76103e+08
-1.52897e+09
-4.64521e+10
-8.71201e+07
-1.01916e+09
-4.58037e+10
-6.92819e+07
-6.41463e+08
-4.483e+10
-2.22058e+08
-7.98632e+08
-4.43044e+10
-2.43758e+07
-5.37723e+08
-4.38833e+10
-6.56095e+07
-3.83093e+08
-4.34364e+10
-1.0766e+08
-3.61892e+08
-4.30791e+10
-1.00582e+08
-2.76573e+08
-4.27549e+10
-1.04855e+08
-2.37446e+08
-4.24636e+10
-1.05129e+08
-2.03349e+08
-4.21973e+10
-1.05569e+08
-1.77825e+08
-4.19446e+10
-1.07555e+08
-1.62874e+08
-4.16949e+10
-1.12382e+08
-1.58286e+08
-4.14416e+10
-1.18338e+08
-1.60711e+08
-4.11774e+10
-1.23731e+08
-1.71121e+08
-4.08971e+10
-1.29237e+08
-1.86454e+08
-4.05959e+10
-1.34799e+08
-2.03347e+08
-4.02702e+10
-1.41178e+08
-2.24631e+08
-3.99153e+10
-1.47872e+08
-2.48222e+08
-3.95273e+10
-1.54499e+08
-2.74972e+08
-3.91007e+10
-1.60945e+08
-3.03327e+08
-3.86393e+10
-1.67641e+08
-3.27968e+08
-3.81447e+10
-1.74618e+08
-3.51632e+08
-3.7627e+10
-1.81933e+08
-3.66558e+08
-3.70923e+10
-1.89432e+08
-3.76762e+08
-3.65533e+10
-1.96957e+08
-3.75435e+08
-3.60176e+10
-2.04352e+08
-3.67817e+08
-3.54975e+10
-2.11489e+08
-3.48589e+08
-3.49998e+10
-2.18267e+08
-3.23348e+08
-3.45319e+10
-2.24729e+08
-2.90767e+08
-3.40998e+10
-2.30991e+08
-2.52103e+08
-3.37058e+10
-2.37432e+08
-2.10264e+08
-3.33559e+10
-2.44264e+08
-1.61201e+08
-3.30517e+10
-2.51483e+08
-1.09372e+08
-3.27943e+10
-2.59175e+08
-5.49862e+07
-3.25869e+10
-2.67928e+08
4.49118e+06
-3.24306e+10
-2.78157e+08
6.76945e+07
-3.23311e+10
-2.90205e+08
1.39722e+08
-3.22916e+10
-3.04653e+08
2.20145e+08
-3.23177e+10
-3.22655e+08
3.13457e+08
-3.24145e+10
-3.44608e+08
4.21573e+08
-3.25882e+10
-3.71338e+08
5.47839e+08
-3.28481e+10
-4.05464e+08
6.99626e+08
-3.321e+10
-4.50156e+08
8.82315e+08
-3.37106e+10
-5.06855e+08
1.10726e+09
-3.44296e+10
-5.76813e+08
1.38911e+09
-3.55001e+10
-6.63561e+08
1.74961e+09
-3.70943e+10
-7.83353e+08
2.18788e+09
-3.94081e+10
-9.73705e+08
2.75473e+09
-4.25484e+10
-1.29339e+09
3.47272e+09
-4.70264e+10
-1.87217e+09
4.95869e+09
-5.39128e+10
-2.60009e+09
7.9136e+09
-6.59089e+10
-6.344e+09
1.71571e+10
-1.29045e+09
9.25348e+09
-5.25658e+10
-1.22193e+09
-5.17833e+10
-9.10938e+08
-5.11558e+10
-7.30793e+08
-5.08031e+10
-6.01864e+08
-5.02635e+10
-5.84247e+08
-4.99028e+10
-4.42366e+08
-4.96098e+10
-4.14516e+08
-4.937e+10
-3.52825e+08
-4.91576e+10
-3.28977e+08
-4.8972e+10
-3.01851e+08
-4.88047e+10
-2.8369e+08
-4.865e+10
-2.73615e+08
-4.84994e+10
-2.75891e+08
-4.83482e+10
-2.84972e+08
-4.81888e+10
-3.01393e+08
-4.80154e+10
-3.22461e+08
-4.78262e+10
-3.45344e+08
-4.76167e+10
-3.73233e+08
-4.73846e+10
-4.03339e+08
-4.71249e+10
-4.36289e+08
-4.68344e+10
-4.71381e+08
-4.65169e+10
-5.02806e+08
-4.61734e+10
-5.34382e+08
-4.58134e+10
-5.57585e+08
-4.54411e+10
-5.77525e+08
-4.50679e+10
-5.86657e+08
-4.46987e+10
-5.91235e+08
-4.43442e+10
-5.85014e+08
-4.40086e+10
-5.7427e+08
-4.36982e+10
-5.56938e+08
-4.34176e+10
-5.3438e+08
-4.31677e+10
-5.1063e+08
-4.29535e+10
-4.82009e+08
-4.27761e+10
-4.51979e+08
-4.26381e+10
-4.19509e+08
-4.25437e+10
-3.8332e+08
-4.24953e+10
-3.45813e+08
-4.25004e+10
-3.01372e+08
-4.25653e+10
-2.51828e+08
-4.27008e+10
-1.92554e+08
-4.29208e+10
-1.20509e+08
-4.32415e+10
-3.24954e+07
-4.36884e+10
7.76321e+07
-4.42995e+10
2.17049e+08
-4.51346e+10
3.97641e+08
-4.62856e+10
6.35346e+08
-4.78972e+10
9.519e+08
-5.01631e+10
1.36612e+09
-5.34209e+10
1.95461e+09
-5.815e+10
2.84874e+09
-6.5822e+10
5.01592e+09
-7.82087e+10
8.8118e+09
-1.01464e+11
1.63108e+10
7.62028e+09
-5.82599e+10
1.5193e+08
-2.00553e+09
-5.82463e+10
8.62168e+07
-1.14868e+09
-5.81693e+10
6.4334e+07
-8.14645e+08
-5.82307e+10
1.18872e+08
-8.83271e+08
-5.80958e+10
8.14231e+07
-7.75717e+08
-5.80492e+10
9.81086e+07
-5.46594e+08
-5.80442e+10
9.98124e+07
-4.84494e+08
-5.80182e+10
1.04742e+08
-4.24018e+08
-5.79982e+10
1.01065e+08
-3.74219e+08
-5.79877e+10
1.04806e+08
-3.32729e+08
-5.79753e+10
1.0461e+08
-3.07254e+08
-5.79592e+10
1.04298e+08
-2.9432e+08
-5.7939e+10
1.02512e+08
-2.93013e+08
-5.79129e+10
1.00975e+08
-3.00692e+08
-5.78821e+10
9.93687e+07
-3.18043e+08
-5.78445e+10
9.80094e+07
-3.3973e+08
-5.77962e+10
9.6602e+07
-3.68061e+08
-5.77356e+10
9.52399e+07
-4.00532e+08
-5.76614e+10
9.3068e+07
-4.35999e+08
-5.75731e+10
9.16881e+07
-4.7335e+08
-5.74706e+10
9.04932e+07
-5.10916e+08
-5.73539e+10
8.943e+07
-5.45035e+08
-5.72278e+10
8.83697e+07
-5.74238e+08
-5.70917e+10
8.73482e+07
-5.96311e+08
-5.69537e+10
8.64707e+07
-6.06337e+08
-5.68113e+10
8.5878e+07
-6.07846e+08
-5.66713e+10
8.56076e+07
-5.97309e+08
-5.6531e+10
8.57881e+07
-5.78201e+08
-5.63942e+10
8.64572e+07
-5.5011e+08
-5.62574e+10
8.77165e+07
-5.18291e+08
-5.61198e+10
8.9424e+07
-4.81306e+08
-5.5979e+10
9.1366e+07
-4.42988e+08
-5.58295e+10
9.3293e+07
-4.02446e+08
-5.56685e+10
9.58041e+07
-3.61601e+08
-5.5489e+10
9.91172e+07
-3.25337e+08
-5.52866e+10
1.02662e+08
-2.87945e+08
-5.50556e+10
1.06161e+08
-2.51718e+08
-5.47859e+10
1.09674e+08
-2.15535e+08
-5.44673e+10
1.12841e+08
-1.79234e+08
-5.40869e+10
1.1545e+08
-1.39779e+08
-5.3632e+10
1.18123e+08
-9.50396e+07
-5.30931e+10
1.21436e+08
-3.75551e+07
-5.24513e+10
1.24782e+08
3.10653e+07
-5.16862e+10
1.28178e+08
1.14367e+08
-5.07772e+10
1.31095e+08
2.18205e+08
-4.97081e+10
1.31957e+08
3.52121e+08
-4.84583e+10
1.25721e+08
5.20666e+08
-4.70594e+10
1.15347e+08
7.56277e+08
-4.55819e+10
9.47088e+07
1.13907e+09
-4.43662e+10
8.34364e+07
1.97965e+09
-4.30022e+10
8.86616e+07
3.1863e+09
-3.95289e+10
-2.36876e+08
4.17009e+09
-1.71455e+10
-3.94149e+09
-1.56048e+09
-2.96561e+09
-4.02763e+09
-6.41514e+10
-1.46766e+09
-6.41053e+10
-8.90284e+08
-6.40867e+10
-7.02772e+08
-6.40828e+10
-5.01738e+08
-6.40748e+10
-5.23577e+08
-6.40648e+10
-3.66127e+08
-6.40948e+10
-2.95856e+08
-6.40986e+10
-2.54657e+08
-6.41154e+10
-2.20687e+08
-6.41338e+10
-1.86986e+08
-6.41501e+10
-1.702e+08
-6.4159e+10
-1.67188e+08
-6.41634e+10
-1.76144e+08
-6.41618e+10
-1.94043e+08
-6.41516e+10
-2.21939e+08
-6.4132e+10
-2.55077e+08
-6.40973e+10
-2.95159e+08
-6.40473e+10
-3.40472e+08
-6.39805e+10
-3.8908e+08
-6.38947e+10
-4.40676e+08
-6.37899e+10
-4.93717e+08
-6.36646e+10
-5.44445e+08
-6.3523e+10
-5.91785e+08
-6.33627e+10
-6.335e+08
-6.31916e+10
-6.64249e+08
-6.30059e+10
-6.87982e+08
-6.28119e+10
-7.00571e+08
-6.26064e+10
-7.0544e+08
-6.2393e+10
-7.01534e+08
-6.21679e+10
-6.94204e+08
-6.19303e+10
-6.81484e+08
-6.16789e+10
-6.68292e+08
-6.1409e+10
-6.54414e+08
-6.11194e+10
-6.39341e+08
-6.08047e+10
-6.25842e+08
-6.0461e+10
-6.11969e+08
-6.00848e+10
-5.99451e+08
-5.96697e+10
-5.85819e+08
-5.92101e+10
-5.71615e+08
-5.86981e+10
-5.54583e+08
-5.81213e+10
-5.34639e+08
-5.74691e+10
-5.0561e+08
-5.67242e+10
-4.68721e+08
-5.58675e+10
-4.19295e+08
-5.48807e+10
-3.49388e+08
-5.37531e+10
-2.45678e+08
-5.2479e+10
-9.80826e+07
-5.1067e+10
1.13589e+08
-4.95296e+10
4.6818e+08
-4.79948e+10
1.24868e+09
-4.52617e+10
2.0754e+09
-3.94463e+10
2.52576e+09
-2.57177e+10
-1.35647e+09
-1.08557e+10
-5.0055e+10
1.02959e+07
-3.1051e+09
-4.93118e+10
1.47252e+08
-2.04943e+09
-4.85566e+10
8.25976e+07
-1.66533e+09
-4.83508e+10
1.58294e+08
-1.2621e+09
-4.79831e+10
7.10935e+07
-1.23022e+09
-4.7669e+10
1.17474e+08
-9.94499e+08
-4.74944e+10
1.33385e+08
-8.07729e+08
-4.7356e+10
1.38471e+08
-7.14566e+08
-4.72183e+10
1.31799e+08
-6.55388e+08
-4.70837e+10
1.34194e+08
-6.11056e+08
-4.69476e+10
1.33333e+08
-5.839e+08
-4.68146e+10
1.33837e+08
-5.66692e+08
-4.66815e+10
1.32898e+08
-5.64142e+08
-4.65445e+10
1.31568e+08
-5.75474e+08
-4.64045e+10
1.31686e+08
-5.98385e+08
-4.62551e+10
1.31424e+08
-6.2989e+08
-4.60962e+10
1.31701e+08
-6.70721e+08
-4.59213e+10
1.31631e+08
-7.1833e+08
-4.57252e+10
1.31201e+08
-7.7489e+08
-4.55034e+10
1.31931e+08
-8.34104e+08
-4.52566e+10
1.33048e+08
-8.93541e+08
-4.49829e+10
1.34826e+08
-9.51597e+08
-4.46886e+10
1.37019e+08
-1.00016e+09
-4.43799e+10
1.39813e+08
-1.03644e+09
-4.4062e+10
1.43361e+08
-1.05637e+09
-4.37446e+10
1.47673e+08
-1.0589e+09
-4.34342e+10
1.52672e+08
-1.04389e+09
-4.31364e+10
1.58206e+08
-1.01521e+09
-4.28545e+10
1.6408e+08
-9.74609e+08
-4.25927e+10
1.70161e+08
-9.2535e+08
-4.23489e+10
1.76455e+08
-8.72417e+08
-4.21248e+10
1.83131e+08
-8.15126e+08
-4.19168e+10
1.89803e+08
-7.58082e+08
-4.17233e+10
1.95602e+08
-6.99514e+08
-4.15484e+10
1.99784e+08
-6.38729e+08
-4.13879e+10
2.02676e+08
-5.77803e+08
-4.12426e+10
2.04598e+08
-5.14672e+08
-4.11135e+10
2.0462e+08
-4.46348e+08
-4.10023e+10
2.02272e+08
-3.71379e+08
-4.09061e+10
1.96952e+08
-2.88794e+08
-4.08194e+10
1.86001e+08
-1.95977e+08
-4.07204e+10
1.66519e+08
-9.61807e+07
-4.05936e+10
1.37075e+08
1.7165e+07
-4.04171e+10
9.56006e+07
1.44054e+08
-4.01691e+10
3.80283e+07
2.8839e+08
-3.98411e+10
-4.03579e+07
4.61765e+08
-3.94636e+10
-1.45688e+08
6.89372e+08
-3.90946e+10
-2.91697e+08
1.01723e+09
-3.87488e+10
-4.80061e+08
1.50345e+09
-3.83357e+10
-5.57118e+08
2.23662e+09
-3.84171e+10
-7.50009e+08
3.97922e+09
-4.06437e+10
-1.21483e+09
7.92274e+09
-5.2615e+10
-7.57483e+09
1.84263e+10
-4.99631e+09
8.12814e+09
-5.42797e+10
-2.3252e+09
-5.36213e+10
-1.40535e+09
-5.31625e+10
-1.08607e+09
-5.27871e+10
-7.28212e+08
-5.26259e+10
-6.24244e+08
-5.24448e+10
-4.4003e+08
-5.23407e+10
-2.7562e+08
-5.22587e+10
-2.05643e+08
-5.22024e+10
-1.51158e+08
-5.21475e+10
-1.12039e+08
-5.21004e+10
-8.7131e+07
-5.20584e+10
-7.75418e+07
-5.20194e+10
-8.45085e+07
-5.19797e+10
-1.05149e+08
-5.1939e+10
-1.34821e+08
-5.18937e+10
-1.73846e+08
-5.18389e+10
-2.23601e+08
-5.17719e+10
-2.81757e+08
-5.16866e+10
-3.47757e+08
-5.15804e+10
-4.17282e+08
-5.14535e+10
-4.86974e+08
-5.13034e+10
-5.56117e+08
-5.11364e+10
-6.1602e+08
-5.09578e+10
-6.64223e+08
-5.07721e+10
-6.96431e+08
-5.05886e+10
-7.11475e+08
-5.04131e+10
-7.08903e+08
-5.02511e+10
-6.92663e+08
-5.01056e+10
-6.64065e+08
-4.99814e+10
-6.26451e+08
-4.98759e+10
-5.85057e+08
-4.97926e+10
-5.38473e+08
-4.97288e+10
-4.92695e+08
-4.96833e+10
-4.4701e+08
-4.96598e+10
-3.99502e+08
-4.96567e+10
-3.53663e+08
-4.96754e+10
-3.07299e+08
-4.97181e+10
-2.58365e+08
-4.97877e+10
-2.06303e+08
-4.98848e+10
-1.5141e+08
-5.00179e+10
-8.71833e+07
-5.01905e+10
-1.48689e+07
-5.04156e+10
7.36555e+07
-5.07059e+10
1.79593e+08
-5.10823e+10
3.11273e+08
-5.15799e+10
4.81316e+08
-5.22689e+10
7.12487e+08
-5.32692e+10
1.05592e+09
-5.47288e+10
1.62453e+09
-5.6599e+10
2.67491e+09
-6.04895e+10
5.46391e+09
-6.84879e+10
9.72425e+09
-9.42799e+10
1.74209e+10
8.48759e+09
-5.34851e+10
-2.53247e+08
-3.31443e+09
-5.31963e+10
-1.43241e+08
-2.1875e+09
-5.27906e+10
-1.22916e+08
-1.94988e+09
-5.249e+10
-1.38027e+08
-1.43293e+09
-5.23367e+10
-1.4116e+08
-1.25397e+09
-5.21577e+10
-1.09963e+08
-1.07443e+09
-5.19908e+10
-7.86753e+07
-9.03986e+08
-5.18605e+10
-7.53278e+07
-7.74465e+08
-5.17595e+10
-8.1806e+07
-6.77082e+08
-5.16762e+10
-8.51947e+07
-6.09414e+08
-5.1599e+10
-9.11886e+07
-5.68381e+08
-5.15254e+10
-9.58884e+07
-5.41296e+08
-5.14508e+10
-1.00971e+08
-5.33439e+08
-5.13743e+10
-1.06158e+08
-5.42411e+08
-5.12904e+10
-1.11476e+08
-5.67174e+08
-5.12008e+10
-1.18193e+08
-6.00136e+08
-5.11023e+10
-1.25537e+08
-6.42706e+08
-5.09906e+10
-1.34792e+08
-6.95906e+08
-5.08643e+10
-1.44434e+08
-7.5604e+08
-5.07175e+10
-1.54546e+08
-8.2204e+08
-5.05487e+10
-1.64919e+08
-8.8836e+08
-5.03592e+10
-1.75538e+08
-9.51143e+08
-5.01533e+10
-1.86256e+08
-1.00115e+09
-4.99386e+10
-1.96552e+08
-1.03165e+09
-4.97222e+10
-2.05925e+08
-1.03901e+09
-4.95143e+10
-2.14129e+08
-1.01961e+09
-4.93219e+10
-2.21086e+08
-9.76872e+08
-4.91504e+10
-2.27105e+08
-9.16079e+08
-4.90021e+10
-2.32562e+08
-8.40963e+08
-4.8874e+10
-2.37737e+08
-7.59411e+08
-4.87658e+10
-2.42064e+08
-6.73613e+08
-4.86731e+10
-2.44625e+08
-5.87882e+08
-4.85931e+10
-2.46063e+08
-5.03963e+08
-4.85186e+10
-2.46944e+08
-4.24422e+08
-4.84425e+10
-2.46417e+08
-3.48845e+08
-4.83606e+10
-2.46665e+08
-2.74742e+08
-4.82661e+10
-2.45667e+08
-2.04146e+08
-4.81522e+10
-2.43208e+08
-1.34749e+08
-4.80114e+10
-2.40007e+08
-6.40033e+07
-4.78361e+10
-2.36058e+08
8.61341e+06
-4.76153e+10
-2.31929e+08
8.49538e+07
-4.7339e+10
-2.28589e+08
1.64183e+08
-4.699e+10
-2.2649e+08
2.48056e+08
-4.65547e+10
-2.26406e+08
3.40108e+08
-4.6017e+10
-2.29075e+08
4.39217e+08
-4.53663e+10
-2.36407e+08
5.53944e+08
-4.45892e+10
-2.53735e+08
6.97979e+08
-4.36434e+10
-2.79089e+08
8.81621e+08
-4.24594e+10
-2.54991e+08
1.09428e+09
-4.0982e+10
-7.81574e+06
1.28375e+09
-3.88977e+10
7.16566e+08
1.87374e+09
-3.54056e+10
5.4728e+08
4.65802e+09
-2.22601e+10
-8.33256e+09
1.43225e+10
-5.41524e+09
6.2736e+09
-5.75413e+10
-2.75818e+09
-5.74399e+10
-1.64807e+09
-5.73273e+10
-1.32393e+09
-5.71889e+10
-1.01046e+09
-5.71402e+10
-8.21312e+08
-5.70597e+10
-6.36981e+08
-5.69423e+10
-4.76564e+08
-5.68556e+10
-3.7077e+08
-5.67989e+10
-2.91254e+08
-5.67523e+10
-2.44179e+08
-5.67137e+10
-2.16011e+08
-5.66802e+10
-2.05111e+08
-5.66501e+10
-2.13493e+08
-5.66199e+10
-2.39543e+08
-5.65833e+10
-2.81739e+08
-5.65448e+10
-3.30186e+08
-5.65057e+10
-3.89274e+08
-5.64638e+10
-4.5983e+08
-5.64198e+10
-5.36979e+08
-5.63696e+10
-6.20597e+08
-5.63127e+10
-7.04289e+08
-5.62515e+10
-7.85197e+08
-5.61893e+10
-8.53906e+08
-5.61327e+10
-9.03865e+08
-5.60867e+10
-9.31588e+08
-5.60593e+10
-9.3268e+08
-5.60551e+10
-9.10456e+08
-5.60778e+10
-8.69885e+08
-5.61294e+10
-8.14181e+08
-5.62076e+10
-7.50743e+08
-5.63126e+10
-6.8143e+08
-5.64374e+10
-6.10979e+08
-5.65801e+10
-5.40786e+08
-5.6737e+10
-4.72639e+08
-5.69014e+10
-4.06623e+08
-5.70745e+10
-3.40469e+08
-5.72503e+10
-2.77366e+08
-5.74232e+10
-2.14304e+08
-5.75898e+10
-1.49227e+08
-5.77449e+10
-8.33289e+07
-5.78804e+10
-1.34307e+07
-5.79881e+10
5.94812e+07
-5.80531e+10
1.36817e+08
-5.80654e+10
2.23745e+08
-5.80091e+10
3.1904e+08
-5.78726e+10
4.29882e+08
-5.76454e+10
5.66988e+08
-5.72795e+10
7.44191e+08
-5.65509e+10
9.6931e+08
-5.49335e+10
1.4467e+09
-5.09085e+10
2.65138e+09
-4.58946e+10
5.9487e+09
-5.08931e+10
1.45884e+10
5.55974e+09
-5.26796e+10
-1.00321e+08
-3.15843e+09
-5.25873e+10
-1.32644e+08
-2.14029e+09
-5.2551e+10
-1.55559e+08
-1.82949e+09
-5.23711e+10
-1.39374e+08
-1.47873e+09
-5.22928e+10
-1.16768e+08
-1.22399e+09
-5.22382e+10
-8.85991e+07
-1.0492e+09
-5.21803e+10
-7.14832e+07
-8.97409e+08
-5.21217e+10
-6.54709e+07
-7.72493e+08
-5.20664e+10
-6.12295e+07
-6.73666e+08
-5.20126e+10
-5.79516e+07
-6.05789e+08
-5.19638e+10
-5.779e+07
-5.58266e+08
-5.19181e+10
-5.80953e+07
-5.26553e+08
-5.18755e+10
-5.74293e+07
-5.15731e+08
-5.18282e+10
-5.77636e+07
-5.2972e+08
-5.17755e+10
-5.87081e+07
-5.6047e+08
-5.17139e+10
-6.13452e+07
-6.02932e+08
-5.16382e+10
-6.47414e+07
-6.58024e+08
-5.15482e+10
-6.96914e+07
-7.25449e+08
-5.1438e+10
-7.45568e+07
-7.99738e+08
-5.13052e+10
-8.03706e+07
-8.82224e+08
-5.11442e+10
-8.60262e+07
-9.6576e+08
-5.0955e+10
-9.23519e+07
-1.04623e+09
-5.07414e+10
-9.88204e+07
-1.10963e+09
-5.05116e+10
-1.05077e+08
-1.14501e+09
-5.02793e+10
-1.1084e+08
-1.14379e+09
-5.00569e+10
-1.157e+08
-1.10374e+09
-4.98575e+10
-1.19899e+08
-1.02869e+09
-4.96898e+10
-1.23623e+08
-9.27882e+08
-4.95579e+10
-1.27283e+08
-8.0844e+08
-4.94625e+10
-1.31233e+08
-6.80713e+08
-4.94019e+10
-1.35313e+08
-5.48859e+08
-4.93725e+10
-1.39194e+08
-4.19045e+08
-4.9368e+10
-1.43347e+08
-2.94981e+08
-4.9384e+10
-1.48888e+08
-1.76442e+08
-4.94144e+10
-1.56172e+08
-6.3852e+07
-4.94493e+10
-1.6521e+08
4.0792e+07
-4.94834e+10
-1.75552e+08
1.39867e+08
-4.95067e+10
-1.87548e+08
2.31099e+08
-4.95081e+10
-2.01984e+08
3.17249e+08
-4.94735e+10
-2.20493e+08
3.9719e+08
-4.93816e+10
-2.45231e+08
4.6925e+08
-4.92113e+10
-2.77524e+08
5.34577e+08
-4.89336e+10
-3.19362e+08
5.9051e+08
-4.85169e+10
-3.71562e+08
6.38166e+08
-4.7929e+10
-4.3566e+08
6.73484e+08
-4.71366e+10
-5.15367e+08
6.97555e+08
-4.60958e+10
-6.1839e+08
7.07796e+08
-4.47663e+10
-7.36098e+08
7.0702e+08
-4.31844e+10
-7.82485e+08
6.89539e+08
-4.19879e+10
-2.94114e+08
8.106e+08
-4.10385e+10
5.54734e+08
8.12091e+08
-3.43768e+10
-8.38666e+08
-5.40725e+08
-9.56529e+08
-1.27894e+10
-5.79232e+09
-6.53296e+09
-3.6068e+09
-5.26258e+10
-2.72712e+09
-5.26506e+10
-1.75102e+09
-5.26477e+10
-1.48234e+09
-5.25932e+10
-1.20814e+09
-5.25709e+10
-9.66216e+08
-5.25264e+10
-7.76353e+08
-5.24359e+10
-6.43844e+08
-5.23346e+10
-5.41497e+08
-5.22319e+10
-4.5754e+08
-5.21299e+10
-4.05258e+08
-5.20287e+10
-3.75055e+08
-5.19259e+10
-3.65496e+08
-5.18211e+10
-3.75256e+08
-5.17108e+10
-4.07938e+08
-5.15965e+10
-4.56626e+08
-5.14759e+10
-5.16082e+08
-5.13467e+10
-5.89986e+08
-5.12091e+10
-6.75402e+08
-5.10611e+10
-7.69141e+08
-5.08998e+10
-8.7036e+08
-5.07227e+10
-9.73443e+08
-5.05299e+10
-1.07344e+09
-5.03256e+10
-1.15699e+09
-5.01175e+10
-1.21354e+09
-4.99174e+10
-1.23458e+09
-4.97357e+10
-1.21839e+09
-4.95824e+10
-1.16857e+09
-4.9464e+10
-1.09385e+09
-4.93836e+10
-1.00088e+09
-4.93414e+10
-8.99461e+08
-4.93355e+10
-7.93589e+08
-4.93623e+10
-6.88381e+08
-4.94183e+10
-5.86103e+08
-4.9502e+10
-4.87171e+08
-4.9611e+10
-3.93201e+08
-4.97421e+10
-3.02478e+08
-4.98967e+10
-2.13505e+08
-5.00707e+10
-1.2865e+08
-5.02622e+10
-4.44899e+07
-5.04687e+10
3.64197e+07
-5.06859e+10
1.13708e+08
-5.09103e+10
1.87226e+08
-5.11326e+10
2.51365e+08
-5.13424e+10
3.09132e+08
-5.15253e+10
3.50032e+08
-5.16652e+10
3.66938e+08
-5.17465e+10
3.53274e+08
-5.17075e+10
2.84952e+08
-5.12752e+10
7.74178e+07
-4.9345e+10
-4.29933e+08
-4.41277e+10
-1.50992e+09
-3.47184e+10
-3.61486e+09
-2.5499e+10
-7.00072e+09
-2.9735e+09
-5.17503e+10
6.83252e+07
-2.98118e+09
-5.17961e+10
5.86572e+07
-2.14546e+09
-5.18432e+10
3.40903e+07
-1.8154e+09
-5.18479e+10
4.16083e+07
-1.52006e+09
-5.1847e+10
3.77978e+07
-1.27124e+09
-5.18577e+10
4.10766e+07
-1.08954e+09
-5.18675e+10
4.35753e+07
-9.40668e+08
-5.18762e+10
4.58397e+07
-8.1736e+08
-5.18858e+10
4.90549e+07
-7.18809e+08
-5.18979e+10
5.04098e+07
-6.48275e+08
-5.19109e+10
5.32446e+07
-6.01454e+08
-5.19192e+10
5.66295e+07
-5.7734e+08
-5.19268e+10
6.30137e+07
-5.74024e+08
-5.19343e+10
6.96647e+07
-5.96211e+08
-5.19415e+10
7.60541e+07
-6.37633e+08
-5.19414e+10
8.24638e+07
-6.96632e+08
-5.19347e+10
8.83955e+07
-7.71526e+08
-5.19165e+10
9.49412e+07
-8.60978e+08
-5.18852e+10
1.01314e+08
-9.60098e+08
-5.1836e+10
1.08594e+08
-1.06854e+09
-5.17628e+10
1.16261e+08
-1.1818e+09
-5.16621e+10
1.24132e+08
-1.29429e+09
-5.15346e+10
1.31836e+08
-1.38703e+09
-5.13892e+10
1.38719e+08
-1.44111e+09
-5.12409e+10
1.44575e+08
-1.44228e+09
-5.11039e+10
1.49033e+08
-1.38978e+09
-5.09911e+10
1.52036e+08
-1.28998e+09
-5.09112e+10
1.53726e+08
-1.15572e+09
-5.08662e+10
1.54318e+08
-1.00032e+09
-5.08587e+10
1.5441e+08
-8.33019e+08
-5.08859e+10
1.54519e+08
-6.63358e+08
-5.09449e+10
1.54916e+08
-4.9744e+08
-5.10339e+10
1.55416e+08
-3.37387e+08
-5.11496e+10
1.56038e+08
-1.84365e+08
-5.12915e+10
1.56524e+08
-3.61656e+07
-5.14584e+10
1.56804e+08
1.0519e+08
-5.16503e+10
1.57042e+08
2.4217e+08
-5.18682e+10
1.57498e+08
3.74036e+08
-5.21116e+10
1.58338e+08
5.01429e+08
-5.23833e+10
1.59949e+08
6.27435e+08
-5.26794e+10
1.60512e+08
7.45845e+08
-5.2991e+10
1.58179e+08
8.56661e+08
-5.33081e+10
1.49891e+08
9.59453e+08
-5.36119e+10
1.35079e+08
1.04799e+09
-5.38828e+10
1.10639e+08
1.11609e+09
-5.40866e+10
6.84169e+07
1.14711e+09
-5.41654e+10
-4.40936e+06
1.1123e+09
-5.3994e+10
-1.17348e+08
9.52748e+08
-5.3318e+10
-2.42702e+08
5.42634e+08
-5.18105e+10
-2.32787e+08
-2.15119e+08
-4.85009e+10
-3.90105e+08
-1.75018e+09
-4.09998e+10
-2.2788e+09
-5.1966e+09
-1.83636e+10
-1.17583e+10
-1.62265e+10
-6.60008e+09
-8.98906e+09
-5.01808e+10
-2.63264e+09
-5.00313e+10
-1.83941e+09
-4.99241e+10
-1.55636e+09
-4.98085e+10
-1.28637e+09
-4.97233e+10
-1.01973e+09
-4.96478e+10
-8.17457e+08
-4.95833e+10
-6.70824e+08
-4.95288e+10
-5.55111e+08
-4.94763e+10
-4.64864e+08
-4.94334e+10
-4.0069e+08
-4.93968e+10
-3.60614e+08
-4.93643e+10
-3.43482e+08
-4.93302e+10
-3.49071e+08
-4.92924e+10
-3.80279e+08
-4.92486e+10
-4.30999e+08
-4.91918e+10
-5.00559e+08
-4.91195e+10
-5.87668e+08
-4.90271e+10
-6.90932e+08
-4.89098e+10
-8.05714e+08
-4.87625e+10
-9.30502e+08
-4.85781e+10
-1.06191e+09
-4.8352e+10
-1.19306e+09
-4.80861e+10
-1.30502e+09
-4.77915e+10
-1.37824e+09
-4.7488e+10
-1.39736e+09
-4.71951e+10
-1.36219e+09
-4.69303e+10
-1.27888e+09
-4.67057e+10
-1.16104e+09
-4.65251e+10
-1.02264e+09
-4.63907e+10
-8.73681e+08
-4.62984e+10
-7.23355e+08
-4.6244e+10
-5.76737e+08
-4.62235e+10
-4.3544e+08
-4.62315e+10
-3.01708e+08
-4.62656e+10
-1.7416e+08
-4.63221e+10
-5.27447e+07
-4.6399e+10
6.59208e+07
-4.64962e+10
1.81558e+08
-4.66107e+10
2.95488e+08
-4.67436e+10
4.09806e+08
-4.68941e+10
5.21561e+08
-4.70628e+10
6.31007e+08
-4.72503e+10
7.30587e+08
-4.74563e+10
8.2095e+08
-4.76886e+10
8.92766e+08
-4.79631e+10
9.29013e+08
-4.83041e+10
9.08775e+08
-4.86988e+10
7.64807e+08
-4.8982e+10
2.98703e+08
-4.84571e+10
-9.76869e+08
-4.61932e+10
-3.79811e+09
-4.28744e+10
-8.80161e+09
-4.19945e+10
-1.94447e+10
-7.4782e+09
-4.9949e+10
1.20606e+08
-2.85076e+09
-5.00313e+10
1.38561e+08
-2.20323e+09
-5.0066e+10
1.56079e+08
-1.94029e+09
-5.01017e+10
1.70035e+08
-1.66055e+09
-5.01104e+10
1.62729e+08
-1.43295e+09
-5.01135e+10
1.53629e+08
-1.24843e+09
-5.01075e+10
1.4804e+08
-1.10285e+09
-5.00963e+10
1.51477e+08
-9.87248e+08
-5.00818e+10
1.55778e+08
-8.95337e+08
-5.00697e+10
1.57694e+08
-8.23231e+08
-5.00629e+10
1.55681e+08
-7.68414e+08
-5.00536e+10
1.53776e+08
-7.44756e+08
-5.00402e+10
1.53773e+08
-7.46274e+08
-5.00253e+10
1.53587e+08
-7.72309e+08
-5.0006e+10
1.52592e+08
-8.21144e+08
-4.99785e+10
1.51023e+08
-8.91716e+08
-4.99399e+10
1.48999e+08
-9.83652e+08
-4.9888e+10
1.47447e+08
-1.08995e+09
-4.98225e+10
1.45573e+08
-1.21083e+09
-4.97374e+10
1.45555e+08
-1.34006e+09
-4.96274e+10
1.45872e+08
-1.48109e+09
-4.94864e+10
1.47978e+08
-1.62276e+09
-4.93136e+10
1.51202e+08
-1.74303e+09
-4.91278e+10
1.55359e+08
-1.80664e+09
-4.89524e+10
1.60534e+08
-1.79274e+09
-4.88146e+10
1.65021e+08
-1.70287e+09
-4.87275e+10
1.68568e+08
-1.55424e+09
-4.8695e+10
1.70594e+08
-1.36888e+09
-4.87142e+10
1.71326e+08
-1.16514e+09
-4.87743e+10
1.71028e+08
-9.59028e+08
-4.8867e+10
1.6984e+08
-7.57015e+08
-4.89821e+10
1.67668e+08
-5.66772e+08
-4.91117e+10
1.6436e+08
-3.88097e+08
-4.92499e+10
1.60245e+08
-2.20447e+08
-4.93907e+10
1.5554e+08
-6.22101e+07
-4.9532e+10
1.50116e+08
8.83309e+07
-4.96709e+10
1.43894e+08
2.32845e+08
-4.98076e+10
1.37187e+08
3.73255e+08
-4.99442e+10
1.30306e+08
5.12224e+08
-5.00772e+10
1.23669e+08
6.47363e+08
-5.02124e+10
1.17899e+08
7.82086e+08
-5.03536e+10
1.14409e+08
9.14544e+08
-5.05044e+10
1.12335e+08
1.04593e+09
-5.06765e+10
1.11194e+08
1.17862e+09
-5.089e+10
1.10827e+08
1.31074e+09
-5.1182e+10
1.08532e+08
1.43282e+09
-5.16156e+10
9.98423e+07
1.52873e+09
-5.22584e+10
7.97158e+07
1.54179e+09
-5.31691e+10
4.64029e+07
1.30101e+09
-5.37004e+10
-1.91214e+08
2.89595e+08
-5.20894e+10
-1.07167e+09
-2.62878e+09
-4.49481e+10
-3.62221e+09
-9.14275e+09
-3.30798e+10
-1.01417e+10
-1.81902e+10
-4.15214e+09
-4.42833e+09
-5.12114e+10
-2.19883e+09
-5.13383e+10
-1.57538e+09
-5.13934e+10
-1.34858e+09
-5.14183e+10
-1.09607e+09
-5.14229e+10
-8.57789e+08
-5.14182e+10
-6.74142e+08
-5.14072e+10
-5.3907e+08
-5.13855e+10
-4.30363e+08
-5.13541e+10
-3.44922e+08
-5.13185e+10
-2.82482e+08
-5.12873e+10
-2.39847e+08
-5.12554e+10
-2.25507e+08
-5.12186e+10
-2.37096e+08
-5.11782e+10
-2.7415e+08
-5.11317e+10
-3.35278e+08
-5.10754e+10
-4.20065e+08
-5.10054e+10
-5.27472e+08
-5.09207e+10
-6.52423e+08
-5.08167e+10
-7.92195e+08
-5.06895e+10
-9.43869e+08
-5.05297e+10
-1.1081e+09
-5.03304e+10
-1.27504e+09
-5.00881e+10
-1.42202e+09
-4.98181e+10
-1.51173e+09
-4.95448e+10
-1.5235e+09
-4.9295e+10
-1.45679e+09
-4.90858e+10
-1.32935e+09
-4.89248e+10
-1.16315e+09
-4.88134e+10
-9.77389e+08
-4.87442e+10
-7.89298e+08
-4.87118e+10
-6.05673e+08
-4.87079e+10
-4.34404e+08
-4.87257e+10
-2.75732e+08
-4.87602e+10
-1.29889e+08
-4.88066e+10
4.67161e+06
-4.88621e+10
1.29615e+08
-4.89221e+10
2.46605e+08
-4.89855e+10
3.58934e+08
-4.90526e+10
4.7014e+08
-4.91174e+10
5.7679e+08
-4.9181e+10
6.84251e+08
-4.9245e+10
7.96062e+08
-4.93151e+10
9.07809e+08
-4.9397e+10
1.01949e+09
-4.95084e+10
1.12862e+09
-4.96865e+10
1.22598e+09
-4.99922e+10
1.29641e+09
-5.05093e+10
1.27854e+09
-5.13307e+10
9.82702e+08
-5.27796e+10
-2.84619e+07
-5.57474e+10
-2.33292e+09
-6.14212e+10
-7.23885e+09
-7.10229e+10
-2.05195e+10
9.82523e+08
-4.98693e+10
4.98297e+07
-2.67288e+09
-4.99265e+10
8.58714e+07
-2.23784e+09
-4.99589e+10
1.15885e+08
-2.03051e+09
-4.99743e+10
1.31861e+08
-1.78384e+09
-4.99634e+10
1.29112e+08
-1.57976e+09
-4.9944e+10
1.20112e+08
-1.395e+09
-4.99292e+10
1.15425e+08
-1.24033e+09
-4.99198e+10
1.17562e+08
-1.12131e+09
-4.99142e+10
1.17261e+08
-1.02511e+09
-4.99121e+10
1.13006e+08
-9.44904e+08
-4.99029e+10
1.0446e+08
-8.88491e+08
-4.98902e+10
9.52174e+07
-8.59581e+08
-4.98723e+10
8.54698e+07
-8.58208e+08
-4.98447e+10
7.40455e+07
-8.86161e+08
-4.98007e+10
6.12476e+07
-9.42939e+08
-4.97326e+10
4.71299e+07
-1.03105e+09
-4.9631e+10
3.29977e+07
-1.14655e+09
-4.94904e+10
1.78637e+07
-1.28777e+09
-4.93014e+10
3.85163e+06
-1.44984e+09
-4.90587e+10
-1.02446e+07
-1.62882e+09
-4.87475e+10
-2.2549e+07
-1.83049e+09
-4.83433e+10
-3.22798e+07
-2.05309e+09
-4.78336e+10
-3.81373e+07
-2.26658e+09
-4.72374e+10
-3.74844e+07
-2.40299e+09
-4.66132e+10
-3.03404e+07
-2.41397e+09
-4.60166e+10
-1.6872e+07
-2.30499e+09
-4.5487e+10
1.08808e+06
-2.11037e+09
-4.50435e+10
2.18215e+07
-1.86807e+09
-4.46857e+10
4.40659e+07
-1.61065e+09
-4.44033e+10
6.68447e+07
-1.36207e+09
-4.41799e+10
8.96514e+07
-1.13333e+09
-4.40013e+10
1.12051e+08
-9.29732e+08
-4.38537e+10
1.33797e+08
-7.50292e+08
-4.3726e+10
1.55344e+08
-5.93047e+08
-4.36084e+10
1.77343e+08
-4.55813e+08
-4.34947e+10
2.0011e+08
-3.34277e+08
-4.33778e+10
2.23859e+08
-2.27958e+08
-4.32549e+10
2.49744e+08
-1.3164e+08
-4.31216e+10
2.7876e+08
-4.50758e+07
-4.29777e+10
3.10386e+08
3.47818e+07
-4.28169e+10
3.44282e+08
1.06864e+08
-4.26357e+10
3.82688e+08
1.70743e+08
-4.24324e+10
4.27572e+08
2.28354e+08
-4.22006e+10
4.77686e+08
2.78563e+08
-4.19476e+10
5.33977e+08
3.24844e+08
-4.17125e+10
5.99972e+08
3.67452e+08
-4.15903e+10
6.78613e+08
4.11557e+08
-4.17772e+10
7.68669e+08
4.50318e+08
-4.26023e+10
8.40738e+08
4.77313e+08
-4.47997e+10
7.65629e+08
4.25733e+08
-4.95116e+10
2.92074e+08
-2.50623e+06
-5.69857e+10
-1.67311e+09
-1.65819e+09
-5.85294e+10
-1.04418e+10
-7.4223e+09
1.63219e+09
3.10491e+09
-4.8448e+10
-1.75852e+09
-4.86495e+10
-1.29264e+09
-4.87757e+10
-1.11086e+09
-4.88574e+10
-8.86886e+08
-4.88873e+10
-7.03014e+08
-4.88978e+10
-5.47984e+08
-4.89119e+10
-4.14108e+08
-4.8919e+10
-3.10377e+08
-4.8921e+10
-2.30116e+08
-4.8921e+10
-1.73792e+08
-4.89179e+10
-1.42968e+08
-4.89145e+10
-1.38853e+08
-4.89104e+10
-1.62387e+08
-4.8904e+10
-2.15964e+08
-4.88917e+10
-2.99549e+08
-4.88665e+10
-4.15344e+08
-4.8823e+10
-5.60283e+08
-4.87534e+10
-7.31359e+08
-4.86519e+10
-9.23964e+08
-4.85114e+10
-1.13412e+09
-4.83181e+10
-1.36572e+09
-4.80477e+10
-1.61852e+09
-4.76829e+10
-1.85867e+09
-4.72392e+10
-2.01692e+09
-4.67644e+10
-2.04442e+09
-4.63031e+10
-1.94693e+09
-4.58853e+10
-1.76083e+09
-4.55232e+10
-1.5245e+09
-4.5213e+10
-1.27168e+09
-4.49433e+10
-1.02705e+09
-4.46984e+10
-8.01883e+08
-4.44651e+10
-6.02207e+08
-4.42309e+10
-4.27902e+08
-4.39851e+10
-2.77237e+08
-4.37177e+10
-1.47697e+08
-4.34216e+10
-3.47469e+07
-4.30867e+10
6.06756e+07
-4.27036e+10
1.43824e+08
-4.22596e+10
2.15926e+08
-4.17485e+10
2.80328e+08
-4.11587e+10
3.37219e+08
-4.04746e+10
3.89133e+08
-3.96812e+10
4.34714e+08
-3.87629e+10
4.71224e+08
-3.77162e+10
5.03345e+08
-3.65592e+10
5.33909e+08
-3.53613e+10
5.79269e+08
-3.42845e+10
6.45589e+08
-3.37173e+10
7.20589e+08
-3.45269e+10
7.5532e+08
-3.85814e+10
9.99427e+08
-5.02105e+10
1.67418e+09
-9.07311e+10
8.84966e+09
-1.28577e+09
-5.11131e+10
-2.95076e+07
-2.32533e+09
-5.13489e+10
-1.86956e+07
-1.98795e+09
-5.154e+10
-2.96781e+07
-1.81285e+09
-5.16976e+10
-3.24898e+07
-1.59599e+09
-5.18329e+10
-3.94715e+07
-1.4072e+09
-5.19493e+10
-4.69186e+07
-1.23413e+09
-5.2059e+10
-5.22725e+07
-1.08127e+09
-5.21704e+10
-5.45671e+07
-9.58414e+08
-5.22833e+10
-5.81218e+07
-8.57051e+08
-5.23947e+10
-6.36123e+07
-7.72585e+08
-5.25036e+10
-6.85892e+07
-7.1362e+08
-5.26102e+10
-7.21026e+07
-6.84116e+08
-5.27153e+10
-7.4773e+07
-6.83587e+08
-5.28173e+10
-7.76839e+07
-7.15465e+08
-5.29088e+10
-8.09478e+07
-7.84617e+08
-5.29828e+10
-8.47396e+07
-8.90938e+08
-5.30289e+10
-8.95054e+07
-1.03308e+09
-5.30427e+10
-9.63107e+07
-1.20791e+09
-5.30154e+10
-1.04594e+08
-1.408e+09
-5.2942e+10
-1.16427e+08
-1.6339e+09
-5.28067e+10
-1.29731e+08
-1.8873e+09
-5.25732e+10
-1.46725e+08
-2.19343e+09
-5.21885e+10
-1.66067e+08
-2.52673e+09
-5.16548e+10
-1.88379e+08
-2.76872e+09
-5.10515e+10
-2.13611e+08
-2.80743e+09
-5.04549e+10
-2.37309e+08
-2.65904e+09
-4.99097e+10
-2.56958e+08
-2.39734e+09
-4.94381e+10
-2.7016e+08
-2.07769e+09
-4.90418e+10
-2.76415e+08
-1.74904e+09
-4.87147e+10
-2.7663e+08
-1.43986e+09
-4.84464e+10
-2.7227e+08
-1.16369e+09
-4.8229e+10
-2.64942e+08
-9.22066e+08
-4.8054e+10
-2.55807e+08
-7.13984e+08
-4.79153e+10
-2.45832e+08
-5.34988e+08
-4.78119e+10
-2.35568e+08
-3.77262e+08
-4.77391e+10
-2.24916e+08
-2.41115e+08
-4.7697e+10
-2.15036e+08
-1.19985e+08
-4.76819e+10
-2.07247e+08
-1.10112e+07
-4.76949e+10
-2.02698e+08
9.23152e+07
-4.77301e+10
-2.0182e+08
1.8726e+08
-4.77822e+10
-2.0508e+08
2.74914e+08
-4.78503e+10
-2.11713e+08
3.59467e+08
-4.7934e+10
-2.21932e+08
4.45213e+08
-4.80321e+10
-2.3681e+08
5.32225e+08
-4.81526e+10
-2.56508e+08
6.2782e+08
-4.83289e+10
-2.77536e+08
7.39738e+08
-4.86608e+10
-2.85133e+08
8.9168e+08
-4.93501e+10
-2.71208e+08
1.1423e+09
-5.08033e+10
-2.61327e+08
1.66855e+09
-5.34853e+10
-3.81493e+08
2.65602e+09
-5.8869e+10
-4.80525e+08