/*--------------------------------*- C++ -*----------------------------------*\
| =========                 |                                                 |
| \\      /  F ield         | OpenFOAM: The Open Source CFD Toolbox           |
|  \\    /   O peration     | Version:  4.1                                   |
|   \\  /    A nd           | Web:      www.OpenFOAM.org                      |
|    \\/     M anipulation  |                                                 |
\*---------------------------------------------------------------------------*/
FoamFile
{
    version     2.0;
    format      ascii;
    class       volVectorField;
    location    "43";
    object      U;
}
// * * * * * * * * * * * * * * * * * * * * * * * * * * * * * * * * * * * * * //

dimensions      [0 1 -1 0 0 0 0];

internalField   nonuniform List<vector> 
4432
(
(-192234 -4247.42 -9752.02)
(-192102 -1781.33 -4365.41)
(-183996 -202.761 -1350.63)
(-178146 -2418.27 -4159.48)
(-178673 -1883.87 -3525.83)
(-176919 -1696.03 -2523.79)
(-174387 -1825.34 -2813.81)
(-172910 -1793.99 -2717.93)
(-171614 -1826.35 -2712.54)
(-170470 -1891.62 -2737.38)
(-169356 -1963.53 -2772.15)
(-168293 -2012.83 -2841.43)
(-167243 -2050.14 -2926.92)
(-166231 -2095.79 -3007.93)
(-165244 -2149.26 -3078.7)
(-164181 -2201.74 -3180.48)
(-163003 -2247.5 -3322.91)
(-161737 -2292.41 -3479.55)
(-160374 -2341.64 -3650.57)
(-158885 -2391.24 -3826.45)
(-157249 -2440.36 -4007.17)
(-155465 -2490.17 -4185.97)
(-153544 -2540.32 -4357.32)
(-151508 -2591.38 -4516.1)
(-149393 -2642.74 -4657.45)
(-147235 -2694.08 -4778.49)
(-145078 -2744.61 -4876.84)
(-142959 -2794.02 -4952.37)
(-140919 -2841.58 -5005.69)
(-138983 -2887.11 -5039.07)
(-137180 -2930.11 -5054.95)
(-135528 -2970.05 -5056.2)
(-134044 -3005.85 -5047.21)
(-132746 -3036.58 -5029.03)
(-131640 -3062.55 -4994.69)
(-130732 -3084.14 -4938.16)
(-130033 -3100.67 -4856.22)
(-129549 -3111.29 -4745.06)
(-129289 -3115.34 -4595.93)
(-129264 -3114.57 -4400.56)
(-129479 -3107.93 -4147.97)
(-129941 -3094.11 -3813.56)
(-130666 -3076.15 -3353.39)
(-131721 -3057.41 -2715.05)
(-133314 -3035.53 -1808.34)
(-135904 -2993.89 -524.478)
(-139957 -2894.32 1338.82)
(-145196 -2669.88 4000.16)
(-150240 -2185.08 7961.47)
(-156718 -1159.95 13080.7)
(-176605 -65.9114 20052)
(-231839 860.464 27659)
(-292838 -8293.99 53081.3)
(-210537 270.597 32317.5)
(-212445 -1370.07 -6481.17)
(-209580 989.005 -4774.55)
(-206645 2443.63 -3743.5)
(-202668 489.957 -3526.05)
(-201526 1025.6 -3578.27)
(-200756 1221.53 -2882.6)
(-198919 1140.32 -3065.22)
(-197814 1204.08 -2993.61)
(-197023 1208.31 -3016.83)
(-196315 1183.81 -3011.95)
(-195592 1152.8 -3034.91)
(-194900 1141.23 -3096.07)
(-194253 1139.99 -3172.64)
(-193658 1131.99 -3235.06)
(-193082 1117.99 -3293.52)
(-192431 1105.88 -3389.25)
(-191686 1100.76 -3515.86)
(-190880 1097.75 -3643.4)
(-189996 1092.93 -3782.25)
(-189006 1089.94 -3919.52)
(-187897 1089.92 -4057.16)
(-186672 1092.3 -4187.31)
(-185340 1097.62 -4305.69)
(-183924 1105.91 -4407.42)
(-182450 1117.68 -4488.75)
(-180952 1133.53 -4547.77)
(-179462 1153.89 -4583.69)
(-178011 1179.23 -4597.62)
(-176630 1209.75 -4591.96)
(-175338 1245.69 -4570.16)
(-174156 1287.24 -4536.41)
(-173098 1334.7 -4493.96)
(-172175 1388.99 -4446.07)
(-171400 1450.61 -4393.43)
(-170783 1519.57 -4334.9)
(-170334 1595.84 -4268.94)
(-170066 1680.07 -4194.95)
(-169997 1773.39 -4113.53)
(-170145 1876.21 -4026.11)
(-170539 1988.12 -3931.8)
(-171218 2111.13 -3826.17)
(-172229 2246.86 -3698.22)
(-173639 2393.83 -3527.34)
(-175586 2552.86 -3283.37)
(-178354 2738.1 -2911.41)
(-182416 2971.19 -2342.83)
(-188288 3288.82 -1454.99)
(-195995 3754.88 -65.6759)
(-204662 4465.02 2237)
(-216440 5521 5311.09)
(-241583 6569.6 9662.63)
(-314736 6517.99 13292)
(-420449 -2785.69 30493.9)
(-353463 -9947.31 33414.6)
(-233498 -361.931 -7892.98)
(-232991 -951.525 -3862.09)
(-233661 -1148.3 -461.631)
(-232714 -445.511 -2177.51)
(-231798 -570.428 -1414.3)
(-232489 -554.575 -57.2859)
(-232316 -555.737 402.422)
(-232014 -511.077 812.032)
(-232026 -526.116 1016.95)
(-232020 -518.186 1153.72)
(-231966 -531.343 1232.7)
(-231901 -534.346 1250.92)
(-231783 -529.958 1244.87)
(-231654 -522.879 1235.78)
(-231564 -525.201 1221.59)
(-231461 -535.325 1188.91)
(-231280 -537.7 1129.01)
(-231043 -530.818 1053.39)
(-230763 -526.492 962.102)
(-230429 -518.397 868.344)
(-230038 -507.746 777.326)
(-229590 -493.713 698.067)
(-229093 -476.411 639.485)
(-228562 -455.641 608.581)
(-228011 -431.025 611.434)
(-227448 -402.315 650.646)
(-226888 -369.41 726.857)
(-226332 -332.307 836.927)
(-225787 -291.255 976.363)
(-225246 -246.451 1137.95)
(-224707 -198.265 1315.37)
(-224161 -146.075 1505.03)
(-223596 -87.9713 1706.09)
(-222992 -22.022 1914.94)
(-222326 50.0809 2128.68)
(-221585 127.403 2348.16)
(-220741 210.49 2570.87)
(-219763 299.247 2795.08)
(-218610 391.61 3017.34)
(-217225 485.328 3236.72)
(-215546 580.52 3452.49)
(-213542 676.504 3671.56)
(-211145 769.298 3893.38)
(-208283 857.146 4114.81)
(-204936 939.568 4340.66)
(-201120 1021.5 4584.67)
(-196815 1101.33 4874.37)
(-191372 1221.14 5313.18)
(-184492 1444.42 6180.15)
(-175923 1732.01 7660.55)
(-174567 1940.59 9358.89)
(-174973 462.395 10845.8)
(-170653 -5472.4 11582.1)
(27938.2 -6808.12 3508.14)
(-257119 1657.33 -4934.43)
(-257015 1049.52 -3382.35)
(-256741 870.671 -2215.16)
(-255962 1496.87 -1259.59)
(-255812 1362.61 -1280.96)
(-256464 1369.23 -345.052)
(-256416 1360.91 25.2695)
(-256270 1393.59 311.836)
(-256435 1371.69 420.493)
(-256545 1370.99 525.068)
(-256615 1351.12 577.765)
(-256644 1340.14 571.72)
(-256625 1335.15 528.627)
(-256601 1331.52 478.279)
(-256611 1318.01 420.916)
(-256581 1295.8 330.82)
(-256451 1278.78 211.74)
(-256265 1267.9 74.4367)
(-256025 1252.31 -82.1312)
(-255710 1237.57 -246.841)
(-255320 1222.44 -416.891)
(-254849 1207.5 -582.421)
(-254305 1192.6 -735.965)
(-253695 1177.98 -870.084)
(-253031 1164.08 -978.665)
(-252317 1151.52 -1058.57)
(-251563 1140.6 -1108.37)
(-250770 1131.91 -1129.95)
(-249942 1125.64 -1126.5)
(-249073 1122.25 -1103.3)
(-248160 1121.89 -1065.21)
(-247192 1125.75 -1015.38)
(-246161 1136.06 -954.448)
(-245059 1155.05 -881.988)
(-243867 1182 -798)
(-242568 1216.89 -701.866)
(-241147 1261 -592.561)
(-239583 1314.92 -469.545)
(-237850 1378 -333.236)
(-235915 1449.6 -182.861)
(-233736 1529.71 -15.8398)
(-231265 1618.57 171.582)
(-228437 1715.49 382.768)
(-225192 1821.21 626.957)
(-221504 1936.04 928.839)
(-217405 2063.18 1335.54)
(-212903 2202.69 1908.85)
(-207490 2385.48 2763.21)
(-200392 2593.1 4212.85)
(-190946 2952.66 6755.29)
(-188599 2712.79 10843.5)
(-188215 1929.97 17514.1)
(-168614 -7511.46 22724.4)
(-15595.4 -7151.64 2540.94)
(-204353 -1318.67 -9427.4)
(-196810 -1232.1 -7881.46)
(-196096 -2091.97 -7480.74)
(-194423 -750.03 -5497.78)
(-192006 -975.235 -5645)
(-191054 -1113.75 -5083.79)
(-190272 -1190.78 -4378.02)
(-189675 -1163.72 -3991.6)
(-189180 -1195.85 -3739.15)
(-188649 -1183.96 -3521.49)
(-188113 -1178.83 -3396.93)
(-187572 -1158.91 -3352.81)
(-186973 -1147.45 -3372.81)
(-186392 -1146.13 -3453.42)
(-185869 -1149.4 -3589.07)
(-185329 -1166.52 -3740.81)
(-184711 -1175.52 -3908.85)
(-184030 -1179.99 -4104.46)
(-183280 -1184.97 -4326.78)
(-182435 -1187.12 -4565.15)
(-181487 -1187.64 -4809.81)
(-180434 -1184.44 -5046.2)
(-179287 -1177.93 -5258.47)
(-178068 -1167.05 -5432.14)
(-176806 -1151.3 -5555.29)
(-175531 -1130.41 -5622.4)
(-174272 -1104.13 -5632.99)
(-173056 -1072.53 -5593.9)
(-171903 -1035.72 -5515.21)
(-170824 -993.712 -5409.79)
(-169822 -946.888 -5287.03)
(-168890 -896.837 -5144.71)
(-168032 -845.149 -4973.17)
(-167245 -789.326 -4789.15)
(-166525 -728.64 -4613.64)
(-165870 -665.496 -4416.15)
(-165278 -599.065 -4193.17)
(-164750 -532.09 -3941.65)
(-164280 -465.776 -3651.35)
(-163860 -401.222 -3309.75)
(-163488 -341.179 -2914.32)
(-163082 -288.043 -2468.59)
(-162555 -238.205 -1978.36)
(-161858 -182.74 -1452.3)
(-160993 -104.572 -894.828)
(-160078 28.8404 -267.827)
(-159131 265.717 493.628)
(-157494 667.821 1600.47)
(-153421 1338.26 3391.6)
(-147855 2892.22 7309.89)
(-150850 4307.96 15550.6)
(-188623 6498.48 32873.1)
(-227506 -8767.12 46547)
(-163490 3135.75 9171.6)
(-219856 2484.7 -8018.08)
(-215621 2363.17 -5348.67)
(-213352 1543.56 -4401.63)
(-211530 2764.44 -3113.24)
(-210826 2533.82 -3287.05)
(-210048 2391.61 -2986.88)
(-209443 2315.29 -2339.04)
(-209128 2334.91 -2038.36)
(-208963 2302.8 -1825.31)
(-208730 2313.62 -1647.1)
(-208536 2320.32 -1541.45)
(-208351 2342.3 -1512.51)
(-208134 2358.3 -1557.81)
(-207935 2366.34 -1673.88)
(-207810 2371.01 -1839.09)
(-207676 2363.67 -2015.96)
(-207463 2364.4 -2214.74)
(-207206 2369.88 -2454.41)
(-206895 2375.53 -2716.78)
(-206502 2384.39 -2999.86)
(-206023 2395.54 -3291.55)
(-205457 2410.88 -3579.12)
(-204811 2430.28 -3846.85)
(-204108 2454.87 -4080.11)
(-203372 2485.37 -4267.01)
(-202629 2522.34 -4401.57)
(-201910 2566.26 -4482.49)
(-201236 2617.42 -4515.41)
(-200629 2676.09 -4508.31)
(-200098 2742.77 -4472.32)
(-199649 2817.73 -4416.52)
(-199278 2900.32 -4345.72)
(-198991 2989.81 -4261.61)
(-198784 3089.25 -4168.02)
(-198659 3200.2 -4065.76)
(-198621 3321.88 -3953.87)
(-198669 3457.05 -3827.64)
(-198807 3605.16 -3678.97)
(-199039 3767.63 -3501.24)
(-199367 3946.84 -3284.01)
(-199800 4141.23 -3013.61)
(-200360 4350.75 -2676.88)
(-201073 4582.26 -2262.22)
(-202002 4846.08 -1752.98)
(-203287 5158.34 -1112.35)
(-205199 5547.99 -266.465)
(-207927 6060.2 889.56)
(-211072 6751.88 2574.86)
(-213420 7737.52 5320.96)
(-217109 9344.21 10715.8)
(-229056 10524.1 21293.9)
(-289796 9699.88 35337.4)
(-329222 -5448.51 42317.1)
(-403614 -25916.7 -12068.3)
(-215372 -3836.46 -12332)
(-213437 -2991.24 -7091.31)
(-211739 -2581.45 -6679.93)
(-210509 -2311.93 -4273.77)
(-209744 -2430.16 -3793.42)
(-208847 -2615.85 -3245.78)
(-208157 -2602.69 -2830.83)
(-207628 -2579.47 -2472.56)
(-207257 -2585.35 -2184.3)
(-206896 -2570.63 -1954.91)
(-206583 -2569.65 -1788.87)
(-206279 -2563.3 -1647.79)
(-205939 -2565.44 -1588.32)
(-205610 -2581.49 -1618.48)
(-205311 -2608.65 -1721.69)
(-204985 -2641.64 -1858.23)
(-204597 -2671.19 -2028.07)
(-204166 -2703.94 -2230.82)
(-203681 -2736.22 -2455.02)
(-203122 -2768.34 -2691.28)
(-202477 -2798.27 -2928.79)
(-201743 -2825.26 -3146.17)
(-200935 -2847.88 -3322.96)
(-200077 -2864.35 -3437.43)
(-199205 -2873.2 -3476.72)
(-198352 -2873.42 -3439.53)
(-197552 -2864.49 -3334.73)
(-196831 -2846.26 -3180.79)
(-196205 -2818.38 -2999.38)
(-195673 -2780.77 -2810.56)
(-195219 -2733.98 -2630.16)
(-194819 -2683.86 -2468.14)
(-194479 -2637.76 -2329.95)
(-194204 -2580.89 -2224.19)
(-193932 -2497.39 -2157.38)
(-193628 -2413.05 -2122.94)
(-193296 -2323.43 -2112)
(-192903 -2222.26 -2116.7)
(-192413 -2113.3 -2122.23)
(-191784 -1995.4 -2110.89)
(-190974 -1867.54 -2070.14)
(-189941 -1727.81 -1984.04)
(-188632 -1571.33 -1830.91)
(-187000 -1389.64 -1588.69)
(-185050 -1165.51 -1228.81)
(-182855 -878.594 -699.302)
(-180381 -512.578 83.6891)
(-176918 -16.5772 1176.57)
(-170979 789.483 2635.62)
(-162315 2200.78 4295.06)
(-157802 4495.77 8908.9)
(-164909 5468.02 18730.9)
(-164398 -10255.8 59002.7)
(-15580.9 -10871.8 26643)
(-230759 1214.98 -9825.79)
(-230079 1893.92 -4742.76)
(-229133 2192.16 -3323.21)
(-229009 2372.03 -2111.96)
(-229025 2203.24 -1564.8)
(-228378 1983.23 -1032.79)
(-227790 1953.06 -623.654)
(-227512 1935.23 -340.214)
(-227330 1895.38 -41.4932)
(-227122 1879.5 174.221)
(-226961 1854.82 309.398)
(-226803 1838.53 383.369)
(-226643 1816.36 383.245)
(-226504 1782.62 299.005)
(-226390 1739.73 146.246)
(-226249 1692.01 -30.1605)
(-226076 1647.32 -243.124)
(-225902 1598.87 -490.799)
(-225720 1549.8 -753.828)
(-225515 1499.61 -1027.03)
(-225285 1449.92 -1295.15)
(-225030 1401.35 -1540.57)
(-224765 1355.31 -1740.98)
(-224513 1313.93 -1876.33)
(-224300 1279.27 -1934.16)
(-224152 1253.15 -1912.75)
(-224093 1237.16 -1821.23)
(-224140 1232.32 -1676.42)
(-224302 1239.67 -1497.91)
(-224579 1259.95 -1305.78)
(-224963 1293.07 -1118.42)
(-225437 1334.29 -950.014)
(-225988 1377.76 -808.756)
(-226600 1436.65 -701.115)
(-227262 1524.38 -629.627)
(-227959 1618.88 -593.712)
(-228672 1725.33 -591.233)
(-229387 1849.76 -615.878)
(-230083 1990.04 -659.502)
(-230730 2148.9 -714.149)
(-231296 2329.1 -771.978)
(-231749 2534.56 -823.617)
(-232046 2772.31 -859.358)
(-232150 3053.51 -870.15)
(-232066 3396.68 -845.572)
(-231847 3824.3 -770.415)
(-231445 4357.36 -619.237)
(-230180 5042.51 -340.103)
(-226515 6020.45 165.207)
(-218894 7474.37 1461.75)
(-215594 8976.05 6146.1)
(-217590 8211.41 16569.9)
(-230927 -16755.2 51950.3)
(-147814 -15993.9 13761.8)
(-210543 -3480.92 -14397.1)
(-210836 -3499.71 -9597.96)
(-210144 -3175.2 -7986.46)
(-209779 -3100.8 -6519.87)
(-209490 -3222.73 -5407.93)
(-209035 -3347.92 -4552.6)
(-208734 -3405.74 -3871.04)
(-208521 -3435.42 -3374.76)
(-208386 -3420.33 -2972.88)
(-208204 -3384.02 -2710.28)
(-207979 -3369.38 -2564.05)
(-207768 -3375.72 -2435.32)
(-207569 -3384.87 -2370.71)
(-207383 -3403.17 -2391.26)
(-207201 -3426.5 -2478.64)
(-206975 -3454.36 -2608.64)
(-206689 -3482.29 -2786.56)
(-206348 -3513.7 -3011.63)
(-205938 -3545.33 -3263.55)
(-205440 -3579.12 -3536.42)
(-204834 -3611.75 -3811.36)
(-204110 -3644.53 -4064.58)
(-203279 -3674.61 -4259.86)
(-202370 -3700.64 -4359.79)
(-201431 -3720.25 -4339.63)
(-200515 -3730.96 -4194.23)
(-199675 -3731.61 -3936.48)
(-198951 -3720.3 -3589.67)
(-198368 -3695.51 -3181.11)
(-197935 -3657.65 -2736.43)
(-197641 -3610.28 -2277.01)
(-197470 -3559.74 -1826.42)
(-197414 -3509.38 -1404.36)
(-197465 -3453.48 -1001.84)
(-197588 -3386.85 -602.046)
(-197744 -3316.45 -227.621)
(-197908 -3245.19 126.623)
(-198045 -3172.83 470.131)
(-198109 -3100.85 809.261)
(-198052 -3029.97 1151.98)
(-197791 -2963.14 1483.36)
(-197245 -2899.53 1806.94)
(-196309 -2842.98 2126.87)
(-194880 -2790.64 2443.7)
(-192888 -2739.58 2762.86)
(-190312 -2690.64 3104.19)
(-187015 -2659.07 3488.6)
(-182251 -2629.88 3955.01)
(-174909 -2473.87 4459.22)
(-164722 -1247.36 5060.73)
(-160228 155.21 5304.34)
(-167992 -1437.16 6223.07)
(-143408 -16362.8 10313.8)
(108085 -9935.6 4870.98)
(-210268 2153.45 -11841.3)
(-210627 2399.15 -7789.36)
(-210272 2774.32 -6642.85)
(-210586 2929.19 -5422.1)
(-210666 2859.26 -4316.59)
(-210217 2777.84 -3357.08)
(-209821 2751.37 -2776.57)
(-209461 2744.32 -2427.26)
(-209124 2775.24 -2136.24)
(-208757 2821.74 -1980.97)
(-208355 2843.25 -1908.53)
(-207923 2842.29 -1882.69)
(-207478 2837.84 -1921.01)
(-207041 2824.12 -2038.18)
(-206608 2806.28 -2215.27)
(-206137 2785.44 -2431.8)
(-205623 2766.78 -2702.74)
(-205079 2747.45 -3019.46)
(-204498 2731.29 -3366.84)
(-203865 2716.69 -3735.72)
(-203169 2707.39 -4110.14)
(-202405 2702.23 -4465.94)
(-201585 2704.11 -4768.5)
(-200740 2714.17 -4981.75)
(-199911 2734.26 -5079.85)
(-199144 2766.29 -5055.58)
(-198480 2810.91 -4918.82)
(-197948 2869.69 -4690.36)
(-197566 2943.88 -4394.88)
(-197338 3032.97 -4054.56)
(-197261 3133.45 -3689.3)
(-197316 3238.72 -3316.17)
(-197496 3344.73 -2944.23)
(-197792 3456.44 -2577.58)
(-198197 3578.35 -2218.73)
(-198701 3702.28 -1865.22)
(-199294 3823.28 -1517.29)
(-199966 3939 -1173.58)
(-200705 4044.22 -826.986)
(-201495 4131.27 -474.708)
(-202320 4192.93 -118.001)
(-203159 4225.04 245.116)
(-203984 4226.11 612.19)
(-204775 4192.83 977.631)
(-205550 4120.65 1327.83)
(-206378 3998.6 1652.85)
(-207182 3800.44 1947.86)
(-207190 3534.51 2151.12)
(-204128 3361.38 2059.08)
(-196700 4280.07 1899.81)
(-187839 4585.5 2432.45)
(-190343 -926.142 3761.46)
(-148959 -36858.7 12807.4)
(-42186.9 -17977.8 5278.99)
(-206369 -1492.12 -11617.3)
(-207244 -1664.74 -8220.69)
(-207161 -1706.43 -6847.78)
(-207436 -1701.84 -5659.25)
(-207519 -1794.18 -4627.28)
(-207437 -1823.54 -3908.05)
(-207391 -1851.4 -3321.85)
(-207403 -1909.39 -2847.68)
(-207505 -1947.91 -2439.89)
(-207625 -1950.77 -2144.8)
(-207660 -1924.68 -1954.58)
(-207648 -1914.32 -1857.96)
(-207667 -1906.07 -1848.64)
(-207706 -1900.72 -1933.31)
(-207744 -1896.01 -2081.78)
(-207754 -1891.15 -2287.93)
(-207729 -1887.33 -2551.91)
(-207667 -1884.06 -2866.31)
(-207556 -1883.66 -3213.26)
(-207379 -1884.04 -3587.98)
(-207112 -1887.1 -3968.23)
(-206733 -1892.85 -4327.26)
(-206241 -1902.61 -4607.82)
(-205667 -1917.18 -4750.99)
(-205064 -1934.84 -4716.68)
(-204494 -1953.05 -4497.77)
(-204007 -1968.66 -4118.05)
(-203641 -1979.72 -3614.6)
(-203414 -1984.14 -3028.36)
(-203332 -1979.61 -2393.7)
(-203390 -1966.66 -1737.42)
(-203579 -1946.18 -1084.49)
(-203893 -1916.61 -456.005)
(-204321 -1877.31 144.894)
(-204853 -1832.3 723.001)
(-205490 -1783.33 1271.82)
(-206228 -1731.76 1786.27)
(-207063 -1679.12 2261.24)
(-207988 -1625.57 2689.19)
(-209010 -1565.84 3073.59)
(-210122 -1502.29 3403.96)
(-211294 -1435.32 3672.43)
(-212487 -1366.01 3873.78)
(-213665 -1292.62 3967.58)
(-214816 -1216.58 3918.8)
(-215950 -1148.67 3675.72)
(-216922 -1116.39 3132.82)
(-216890 -1136.93 2124.1)
(-213712 -1147.52 341.076)
(-205887 -827.47 -1695.63)
(-198013 -949.281 -4624.65)
(-195799 -2494.1 -11148.5)
(-178462 -13623.4 -38434.8)
(19542.3 -10856.3 -24762.4)
(-200899 2101.97 -10406.5)
(-200331 2104.7 -7054.69)
(-199738 2130.81 -6140.24)
(-199516 2214 -5058.93)
(-199228 2178.92 -3882.29)
(-198715 2201.94 -2983.82)
(-198397 2219.3 -2342.29)
(-198164 2198.84 -1888.41)
(-197989 2192.98 -1556.23)
(-197847 2218.82 -1327.11)
(-197685 2270.45 -1178.36)
(-197517 2301.82 -1118.33)
(-197370 2328.76 -1150.97)
(-197235 2352 -1277.35)
(-197082 2375.25 -1471.04)
(-196878 2400.19 -1725.6)
(-196610 2426.58 -2047.41)
(-196271 2455.89 -2425.15)
(-195842 2486.75 -2846.13)
(-195301 2522.34 -3300.06)
(-194617 2561.78 -3771.63)
(-193766 2606.15 -4228.84)
(-192746 2654.88 -4617.75)
(-191594 2707.67 -4875.84)
(-190378 2765.75 -4960.2)
(-189179 2830.15 -4864.68)
(-188071 2902.56 -4612.12)
(-187108 2983.7 -4242.67)
(-186318 3074.82 -3799.6)
(-185709 3178.07 -3318.25)
(-185275 3293.47 -2822.48)
(-185001 3420.88 -2329.96)
(-184868 3562.67 -1855.95)
(-184863 3720.61 -1405.14)
(-184968 3891.86 -975.944)
(-185172 4076.17 -565.871)
(-185462 4273.87 -172.717)
(-185828 4485.18 204.333)
(-186260 4711.17 562.921)
(-186747 4951.96 897.4)
(-187282 5204.73 1199)
(-187860 5464.49 1453.28)
(-188482 5722.2 1640.03)
(-189173 5976.86 1752.38)
(-190011 6218.19 1725.54)
(-191164 6416.66 1487.32)
(-192747 6535.68 952.498)
(-194186 6533.6 -106.172)
(-193323 6409.16 -2286.2)
(-189305 6341.77 -6941.83)
(-187390 4696.63 -16004.5)
(-209724 -2064.53 -29314.6)
(-210017 -31781.8 -56922.8)
(-110324 -19465.9 -20845.7)
(-199107 -749.987 -11512.4)
(-200062 -748.855 -8480.77)
(-200128 -876.296 -7395.56)
(-200438 -889.901 -6296.69)
(-200506 -872.006 -5367.07)
(-200492 -806.934 -4605.12)
(-200401 -792.188 -3980.45)
(-200337 -822.31 -3478.23)
(-200348 -858.873 -3108.42)
(-200350 -858.592 -2843.28)
(-200287 -850.156 -2624.43)
(-200221 -851.957 -2519.84)
(-200175 -855.583 -2521.43)
(-200126 -861.146 -2619.24)
(-200059 -868.488 -2799.16)
(-199959 -875.891 -3057.24)
(-199816 -883.444 -3390.29)
(-199621 -889.924 -3779.27)
(-199373 -896.447 -4213.33)
(-199055 -898.425 -4675.34)
(-198640 -898.96 -5156.2)
(-198093 -894.672 -5618.8)
(-197407 -889.032 -5990.56)
(-196641 -882.193 -6175.95)
(-195896 -874.734 -6109.11)
(-195275 -869.414 -5791.44)
(-194852 -866.156 -5266.75)
(-194651 -866.136 -4598.96)
(-194664 -868.829 -3848.29)
(-194855 -874.284 -3057.76)
(-195188 -881.923 -2255.83)
(-195627 -889.406 -1459.39)
(-196142 -893.945 -671.693)
(-196701 -893.577 110.477)
(-197278 -889.124 887.873)
(-197862 -880.573 1663.85)
(-198442 -866.732 2444.07)
(-199011 -845.456 3233.03)
(-199562 -814.451 4030.31)
(-200092 -770.861 4831.35)
(-200598 -710.508 5620.42)
(-201089 -624.498 6394.59)
(-201596 -503.562 7177.02)
(-202142 -343.532 7969.42)
(-202863 -137.33 8754.58)
(-203983 120.811 9497.62)
(-205732 438.425 10107.3)
(-207929 830.556 10336.4)
(-209059 1365.24 9559.82)
(-209271 1768.06 6354.5)
(-210515 1956.18 -2753.87)
(-227201 809.799 -23147.6)
(-184263 -12950.2 -68726.3)
(-79724.3 -7647.95 -31153.9)
(-203829 2206.22 -9846.68)
(-205416 2189.15 -6935.18)
(-205469 2068.09 -5985.42)
(-205706 2057.05 -5070.11)
(-205704 2079.46 -4093.82)
(-205676 2146.37 -3305.28)
(-205639 2164.24 -2705.56)
(-205569 2139.03 -2209.64)
(-205485 2107.57 -1838.6)
(-205367 2111.37 -1570.28)
(-205224 2121.68 -1383.31)
(-205079 2120.4 -1301.23)
(-204939 2115.59 -1324.56)
(-204791 2107.01 -1444.54)
(-204618 2094.82 -1649.7)
(-204404 2080.76 -1938.36)
(-204141 2064.94 -2305.7)
(-203819 2048.86 -2736.2)
(-203429 2031.88 -3212.85)
(-202951 2019.03 -3723.18)
(-202353 2008.08 -4251.74)
(-201592 2003.22 -4762.56)
(-200655 2002.25 -5180.38)
(-199584 2006.35 -5406.33)
(-198475 2016.08 -5375.87)
(-197433 2029.53 -5089.68)
(-196537 2047.03 -4594.29)
(-195831 2067.5 -3954.48)
(-195321 2091.27 -3233.47)
(-194991 2118.11 -2479.29)
(-194814 2148.58 -1719.65)
(-194763 2185.06 -968.892)
(-194814 2230.65 -231.796)
(-194940 2287.88 495.653)
(-195122 2356.63 1220.35)
(-195347 2437.58 1949.31)
(-195599 2532.76 2691.43)
(-195865 2645.04 3455.86)
(-196134 2777.71 4246.86)
(-196391 2935.39 5066.8)
(-196624 3124.45 5918.03)
(-196820 3352.8 6811.58)
(-197006 3622.26 7743.06)
(-197221 3945.49 8748.01)
(-197562 4330.36 9830.39)
(-198253 4781.17 10996.2)
(-199525 5299.73 12209.6)
(-201193 5886.25 13277.1)
(-202228 6561.61 13480.3)
(-202861 6936.04 11162.1)
(-213075 6349.66 3989.03)
(-256676 3305.27 -10734.4)
(-317970 -13782.6 -55127.7)
(-245556 -13603.8 -3262.89)
(-198859 -1076.37 -11239.3)
(-199608 -966.193 -9096.03)
(-199778 -1036 -8228.85)
(-200018 -1085.51 -7242.3)
(-199946 -1046.42 -6465.06)
(-199805 -982.749 -5705.52)
(-199672 -989.157 -5042.42)
(-199632 -1025.35 -4521.5)
(-199690 -1048.95 -4136.6)
(-199697 -1045.35 -3825.54)
(-199633 -1055.35 -3604.2)
(-199579 -1078.82 -3497.79)
(-199525 -1107.91 -3496.29)
(-199444 -1142.06 -3599.81)
(-199307 -1179 -3811.36)
(-199081 -1218.29 -4130.03)
(-198732 -1257.53 -4546.98)
(-198235 -1297.77 -5042.5)
(-197567 -1333.26 -5600.05)
(-196700 -1364.63 -6199.21)
(-195576 -1385.19 -6841.92)
(-194095 -1392.77 -7498.06)
(-192184 -1382.12 -8071.69)
(-189889 -1347.47 -8378.08)
(-187400 -1288.71 -8281.77)
(-184953 -1206.89 -7796.82)
(-182728 -1107.91 -7021.75)
(-180827 -996.76 -6076.08)
(-179271 -878.743 -5064.87)
(-178030 -758.867 -4059.75)
(-177054 -636.858 -3098.36)
(-176282 -509.64 -2195.49)
(-175656 -375.726 -1345.62)
(-175129 -232.017 -535.515)
(-174662 -74.9885 245.169)
(-174225 98.2764 1007.36)
(-173788 291.034 1763.92)
(-173328 508.982 2529.17)
(-172826 756.758 3316.44)
(-172265 1035.71 4140.43)
(-171628 1346.96 5004.83)
(-170893 1698.84 5911.92)
(-170046 2102.86 6870.95)
(-169098 2568.38 7917.23)
(-168091 3116.2 9061.82)
(-167255 3781.72 10347.6)
(-166899 4608.55 11791.6)
(-167079 5642.54 13319.6)
(-167069 6859.75 14602.9)
(-167927 8320.33 14545.7)
(-182590 10944.4 10694.7)
(-238073 13575.4 -3918.22)
(-288052 -2483.45 -37497.3)
(-185597 14094.1 -14.654)
(-192502 2083.86 -7575.2)
(-194438 2208.96 -5390.93)
(-194978 2135.26 -4539.95)
(-195444 2083.85 -3662.59)
(-195470 2119.91 -2946.42)
(-195534 2172.5 -2298.71)
(-195603 2147.55 -1768.67)
(-195641 2088.13 -1332.55)
(-195695 2037.68 -983.568)
(-195708 2012.15 -732.578)
(-195681 1970.16 -589.023)
(-195659 1912.19 -557.735)
(-195645 1846.97 -632.907)
(-195631 1775.49 -816.799)
(-195596 1700.93 -1111.73)
(-195518 1624.67 -1518.76)
(-195370 1550.06 -2029.12)
(-195130 1476.08 -2624.09)
(-194779 1408.03 -3282.65)
(-194291 1344.74 -3989.54)
(-193607 1292.79 -4737.46)
(-192629 1254.01 -5504.39)
(-191279 1233.3 -6186.59)
(-189588 1236.01 -6601.45)
(-187714 1261.88 -6614.27)
(-185849 1309.64 -6233.37)
(-184126 1373.37 -5556.75)
(-182615 1447.85 -4698.46)
(-181320 1527.39 -3764.01)
(-180202 1606.52 -2827.41)
(-179207 1684.91 -1927.6)
(-178280 1764.86 -1083.4)
(-177370 1847.02 -295.104)
(-176433 1933.51 444.971)
(-175432 2027 1145.18)
(-174331 2129.48 1814.24)
(-173096 2242.93 2458.22)
(-171689 2372.66 3090.13)
(-170051 2526.3 3734.45)
(-168140 2705.33 4399.28)
(-165916 2913.55 5094.9)
(-163342 3164.76 5850.57)
(-160329 3470.99 6659.05)
(-156839 3839.01 7524.51)
(-152892 4284.61 8455.69)
(-148641 4834.99 9472.72)
(-144288 5525.64 10609.2)
(-139840 6389.93 11770.5)
(-134845 7394.95 12459.4)
(-130873 8509.09 11565)
(-140873 9929.45 8954.23)
(-191634 9855.22 2478.32)
(-252358 -13648.9 -18830.8)
(-381236 -5355.99 -14514.7)
(-203431 -1049.92 -10077.8)
(-205036 -989.779 -8672.2)
(-205752 -1051.96 -7883.89)
(-206627 -1102.82 -6880.22)
(-207147 -1076.9 -6074.97)
(-207534 -1063.26 -5369.63)
(-207953 -1118.82 -4793.66)
(-208440 -1168.18 -4377.44)
(-208935 -1175.02 -4035.35)
(-209377 -1167.74 -3724.18)
(-209796 -1167.91 -3528.55)
(-210224 -1173.7 -3452.27)
(-210655 -1180.97 -3491.41)
(-211078 -1191.16 -3653.69)
(-211469 -1203.91 -3947.48)
(-211797 -1219.51 -4377.28)
(-212026 -1239.31 -4933.75)
(-212129 -1265.87 -5605.83)
(-212088 -1298.31 -6370.11)
(-211887 -1339.01 -7220.05)
(-211467 -1384.12 -8157.17)
(-210673 -1439.06 -9204.75)
(-209312 -1501.46 -10254.1)
(-207350 -1571.92 -10988.1)
(-205026 -1643.44 -11114.9)
(-202647 -1701.46 -10650.2)
(-200421 -1737.89 -9795.02)
(-198452 -1747.72 -8741.59)
(-196773 -1734.03 -7652.6)
(-195368 -1704.73 -6632.26)
(-194208 -1665.71 -5733.38)
(-193262 -1621.74 -4972.99)
(-192496 -1577.18 -4350.29)
(-191889 -1537.24 -3854.02)
(-191424 -1505.89 -3470.42)
(-191091 -1484.71 -3188.08)
(-190879 -1477.93 -2992.67)
(-190780 -1489.69 -2871.6)
(-190784 -1522.69 -2818.08)
(-190880 -1580.65 -2834.3)
(-191029 -1665.8 -2920.53)
(-191216 -1777.3 -3072.39)
(-191446 -1919.05 -3283.67)
(-191730 -2096.62 -3556.43)
(-192144 -2312.02 -3892)
(-192895 -2563.74 -4277.73)
(-194264 -2816.97 -4633.91)
(-196392 -3061.04 -4782.33)
(-198659 -3335.29 -4196.56)
(-202750 -4022.56 -2314.25)
(-218819 -4302.24 1613.73)
(-276775 -5634.99 7566.39)
(-335266 2291.76 24344.4)
(-385175 -32939 55307)
(-189463 993.997 -6710.42)
(-190389 1031.75 -5138.55)
(-191088 940.375 -4308.29)
(-191661 864.967 -3268.19)
(-191985 873.387 -2535.85)
(-192388 865.471 -2004.13)
(-192858 781.016 -1536.2)
(-193313 705.815 -1186.92)
(-193792 679.305 -914.517)
(-194286 669.641 -717.054)
(-194794 653.894 -632.057)
(-195326 635.907 -663.565)
(-195874 621.967 -811.589)
(-196426 611.958 -1085.22)
(-196961 606.707 -1496.13)
(-197445 602.566 -2048.62)
(-197840 596.08 -2734.49)
(-198122 583.903 -3535.55)
(-198281 566.756 -4433.5)
(-198309 540.824 -5412.11)
(-198155 508.321 -6480.61)
(-197671 460.423 -7654.84)
(-196673 395.274 -8817.48)
(-195165 306.703 -9635.15)
(-193422 198.796 -9800.98)
(-191778 88.3494 -9343.93)
(-190430 -12.149 -8478.57)
(-189451 -93.029 -7414.07)
(-188824 -153.452 -6325.54)
(-188478 -198.065 -5322.55)
(-188332 -230.388 -4460.69)
(-188316 -253.52 -3760.88)
(-188368 -270.544 -3223.48)
(-188439 -285.993 -2838.49)
(-188493 -303.963 -2594.31)
(-188498 -326.448 -2480.33)
(-188424 -357.669 -2493.81)
(-188233 -403.587 -2621.45)
(-187904 -474.717 -2867.62)
(-187394 -576.177 -3236.86)
(-186650 -713.759 -3744.4)
(-185611 -890.034 -4407.61)
(-184211 -1111.68 -5258.5)
(-182392 -1390.35 -6337.93)
(-180129 -1735.61 -7681.5)
(-177464 -2147.43 -9318.21)
(-174415 -2596.48 -11233.2)
(-170543 -3074.81 -13329.6)
(-164842 -3570.97 -15089.5)
(-157556 -4119.04 -15705.7)
(-159113 -4505.27 -14397.5)
(-185393 -7332.66 -11532.1)
(-222643 -3512.3 32587.5)
(-168360 -11030.2 19081.8)
(-197839 -602.079 -8965.01)
(-199155 -462.594 -7782.86)
(-199926 -470.643 -7063.69)
(-200940 -488.764 -6125.01)
(-201775 -479.858 -5293.45)
(-202475 -531.435 -4601.69)
(-203205 -575.12 -4038.87)
(-203946 -587.565 -3561.94)
(-204631 -579.203 -3131.26)
(-205294 -578.373 -2773.04)
(-205972 -573.603 -2519.91)
(-206663 -566.382 -2376.57)
(-207377 -555.929 -2354.99)
(-208113 -544.136 -2472.3)
(-208858 -531.545 -2747.16)
(-209582 -518.589 -3194.15)
(-210259 -506.205 -3803.54)
(-210872 -493.823 -4563.76)
(-211425 -486.628 -5469.57)
(-211938 -481.298 -6490.32)
(-212407 -485.001 -7611.45)
(-212674 -497.523 -8918.82)
(-212401 -531.893 -10375.5)
(-211521 -610.628 -11466.9)
(-210535 -744.492 -11579)
(-210000 -921.397 -10767.9)
(-210056 -1113.96 -9550.03)
(-210598 -1305.73 -8224.09)
(-211442 -1483.43 -6978.53)
(-212407 -1640.18 -5897.15)
(-213362 -1772.34 -5004.29)
(-214224 -1880.18 -4290.65)
(-214945 -1966.49 -3730.73)
(-215495 -2033.45 -3297.97)
(-215858 -2082.81 -2965.49)
(-216019 -2112.96 -2716.43)
(-216009 -2129.31 -2536.03)
(-215826 -2133.56 -2413.47)
(-215448 -2124.64 -2337.76)
(-214861 -2099.65 -2304.77)
(-214072 -2062.8 -2316.88)
(-213057 -2022.09 -2386.46)
(-211739 -1977.13 -2526.17)
(-210054 -1929.14 -2752.19)
(-207960 -1883.55 -3091.17)
(-205446 -1847.13 -3567.42)
(-202491 -1847.65 -4220.24)
(-198384 -1916.72 -4989.69)
(-192080 -2193.63 -5437.01)
(-181485 -2192.99 -5338.76)
(-174385 -1721.99 -2701.25)
(-173300 775.138 5231.71)
(-202605 13155.6 53407.1)
(-122877 11451.7 15173.5)
(-194876 1146.68 -6235.66)
(-195341 1328.72 -5044.06)
(-195673 1341.54 -4327.81)
(-196140 1350.51 -3416.22)
(-196496 1384.83 -2726.49)
(-196795 1356.74 -2156.69)
(-197080 1337.53 -1601.33)
(-197407 1353.92 -1150.72)
(-197757 1395.61 -792.193)
(-198147 1433.14 -526.264)
(-198573 1480.02 -366.848)
(-199027 1534.49 -319.504)
(-199503 1597.06 -398.727)
(-199981 1664.95 -619.85)
(-200448 1736.33 -1006.81)
(-200869 1812.82 -1577.88)
(-201212 1894.52 -2333.47)
(-201450 1982 -3265.28)
(-201574 2069.66 -4364.53)
(-201598 2161.06 -5600.55)
(-201509 2249.06 -6976.71)
(-201115 2334.33 -8586.93)
(-200028 2404.1 -10393.1)
(-198123 2435.41 -11841.4)
(-195898 2415.14 -12265)
(-193969 2350.64 -11677.3)
(-192565 2266.39 -10576.1)
(-191691 2178.15 -9267.22)
(-191249 2096.85 -7973.13)
(-191098 2026.93 -6805.24)
(-191119 1970.55 -5806.62)
(-191225 1927.17 -4983.17)
(-191352 1896.13 -4319.17)
(-191454 1874.02 -3790.12)
(-191505 1857.92 -3366.33)
(-191482 1848.48 -3019.99)
(-191378 1844.34 -2761.64)
(-191167 1842.89 -2588.53)
(-190823 1844.63 -2493.55)
(-190315 1850.92 -2473.4)
(-189609 1858.57 -2527.01)
(-188675 1861.24 -2647.27)
(-187481 1858.94 -2838.64)
(-186002 1848.83 -3119.69)
(-184270 1823.02 -3501.15)
(-182414 1771.65 -3977.66)
(-180566 1662.66 -4506.35)
(-178416 1463.47 -4905.86)
(-174922 1029.94 -5103.29)
(-169473 397.015 -5023.05)
(-167470 -273.101 -4117.57)
(-176114 560.765 -680.042)