/*--------------------------------*- C++ -*----------------------------------*\
| =========                 |                                                 |
| \\      /  F ield         | OpenFOAM: The Open Source CFD Toolbox           |
|  \\    /   O peration     | Version:  4.1                                   |
|   \\  /    A nd           | Web:      www.OpenFOAM.org                      |
|    \\/     M anipulation  |                                                 |
\*---------------------------------------------------------------------------*/
FoamFile
{
    version     2.0;
    format      ascii;
    class       surfaceScalarField;
    location    "50";
    object      phi;
}
// * * * * * * * * * * * * * * * * * * * * * * * * * * * * * * * * * * * * * //

dimensions      [0 3 -1 0 0 0 0];

internalField   nonuniform List<scalar> 
11516
(
9.98743e+06
222.932
9742.14
9.96923e+06
322.502
21130.9
9.94114e+06
461.9
31162.2
9.90386e+06
522.66
40679.7
9.85742e+06
613.76
50112.7
9.80158e+06
715.42
59660.8
9.73592e+06
755.445
69478.3
9.65995e+06
719.27
79677.8
9.57318e+06
644.435
90314.9
9.47514e+06
570.74
101561
9.36597e+06
568.662
113014
9.2469e+06
688.292
123748
9.12039e+06
865.847
132605
8.99235e+06
1044.73
136239
8.8753e+06
176.051
128650
8.78196e+06
-1138.14
107140
8.73368e+06
766.07
60765.5
8.73568e+06
1157.31
6951.96
8.74512e+06
1274.08
-2871.8
8.71676e+06
2183.22
31959.3
8.65553e+06
-535.183
66200.7
8.56113e+06
-4280.69
102464
8.43961e+06
-7424.87
132510
8.29761e+06
-10007.8
155756
8.13624e+06
-12002.6
177395
7.97624e+06
-13531.8
178234
7.83257e+06
-11163
160969
7.71378e+06
-5739.2
132084
7.62094e+06
-3751.16
105100
7.55401e+06
-6371.91
82610.7
7.50277e+06
-10885.3
72789.1
7.44328e+06
-17018.8
87142.3
7.39105e+06
-18434.1
81361.3
7.38974e+06
-4506.34
18491.2
7.48277e+06
12836.9
-80285
7.61173e+06
16425.9
-113965
7.69877e+06
19064
-69126.8
7.76086e+06
10365.8
-27737.1
7.79e+06
-328.732
234.423
7.82125e+06
-1873.09
-4267.66
7.8769e+06
6773.6
-51934.8
7.91936e+06
18690
-76432
7.91824e+06
22142.5
-63884.5
7.89254e+06
25260
-50622.9
7.85056e+06
8507.71
-36892.6
7.83106e+06
-11921.7
-69150.8
7.77418e+06
572.9
-32279.8
7.7746e+06
1143.66
-82515.2
7.80998e+06
27928
-151256
7.91737e+06
-20077.7
-231541
8.15661e+06
1104.28
-298439
8.45074e+06
-32431.6
-456423
9.00897e+06
58850.7
-521772
103121
-944702
9.98777e+06
9741.13
9.96922e+06
21143.3
9.941e+06
31165.6
9.9036e+06
40659.8
9.85712e+06
50082.2
9.80132e+06
59657.6
9.73572e+06
69521.3
9.65975e+06
79791.8
9.5729e+06
90514.5
9.47473e+06
101808
9.3654e+06
113305
9.24622e+06
123983
9.11935e+06
132912
8.99007e+06
136865
8.86714e+06
130943
8.76985e+06
105033
8.72426e+06
54863.4
8.73345e+06
-1789.84
8.74835e+06
-8752.5
8.7223e+06
31771.5
8.66143e+06
63272
8.56867e+06
91072.6
8.44805e+06
115640
8.30389e+06
136712
8.13642e+06
158402
7.96844e+06
158252
7.81626e+06
145921
7.68543e+06
131038
7.5805e+06
108190
7.51519e+06
67753.3
7.49088e+06
23146.2
7.48201e+06
2451.81
7.47448e+06
961.278
7.48751e+06
-4924.02
7.56288e+06
-44438
7.67367e+06
-63699.2
7.7637e+06
-36335.1
7.82751e+06
-21891.4
7.86888e+06
-15710.1
7.90195e+06
-23149.2
7.9422e+06
-33215.5
7.97965e+06
-36837.3
7.99972e+06
-19644.3
7.98724e+06
-11119.6
7.93799e+06
6051.39
7.89596e+06
-30154.3
7.85529e+06
-18329.5
7.84125e+06
-30887.5
7.83821e+06
-95480.8
8.04891e+06
-203810
8.18871e+06
-333208
8.61546e+06
-425062
9.11766e+06
-412600
-785497
1.00066e+07
224.228
5638.66
1.00151e+07
312.859
15585.8
1.0024e+07
454.694
25439.5
1.00328e+07
532.274
35351
1.00412e+07
647.139
45465.3
1.00491e+07
773.45
55919.3
1.0056e+07
847.394
66809.4
1.0062e+07
856.161
78027.2
1.00665e+07
822.786
90273.2
1.00696e+07
789.492
102875
1.00711e+07
782.725
116187
1.007e+07
834.895
129764
1.00643e+07
1050.6
143493
1.00506e+07
1309.02
155950
1.00131e+07
3465.1
170545
9.94231e+06
3611.6
182452
9.81869e+06
3118.6
191368
9.61952e+06
2259.53
208458
9.39615e+06
-479.953
223282
9.1991e+06
-1097.45
231840
9.02889e+06
429.181
237440
8.88426e+06
2020.4
246250
8.75348e+06
3368.1
261023
8.62576e+06
4665.15
279965
8.50195e+06
5488.77
297156
8.3773e+06
6526
298513
8.24859e+06
7745.04
285266
8.10103e+06
10539.4
273681
7.9388e+06
16455.8
255799
7.77358e+06
20210.5
232673
7.60986e+06
23371.8
217967
7.47436e+06
26860.5
199641
7.39993e+06
24169.7
135583
7.39908e+06
16735.9
9686.33
7.47987e+06
8055
-152641
7.55732e+06
-2607.21
-153571
7.60974e+06
-15423
-60212.2
7.64833e+06
-25888.8
-1896.18
7.66409e+06
-31411.8
40355.2
7.70298e+06
-27670.5
-10578.9
7.74003e+06
-20358.3
-68820.8
7.72932e+06
-30777
-45440.4
7.68085e+06
-40218.1
3133.42
7.61261e+06
-45147.5
14939.9
7.54242e+06
-55093.6
20619.1
7.46628e+06
-63809.1
-10390.4
7.41145e+06
-70632
2126
7.36979e+06
-63383.4
-48743.4
7.32771e+06
-67595.8
-126286
7.38998e+06
-112399
-276299
7.29383e+06
-40162
-216463
7.3732e+06
81378.3
-598569
8.37723e+06
181107
-1.64163e+06
17665.1
-2.01503e+06
1.0007e+07
5634.92
1.00151e+07
15582.4
1.00238e+07
25432.6
1.00325e+07
35336.1
1.00409e+07
45440.6
1.00488e+07
55889.2
1.00558e+07
66783.7
1.0062e+07
78021.5
1.00667e+07
90314.3
1.00699e+07
102969
1.00714e+07
116345
1.00703e+07
130004
1.00652e+07
143632
1.00523e+07
156187
1.0025e+07
167814
9.9623e+06
178103
9.83054e+06
195996
9.6259e+06
207788
9.39713e+06
221037
9.20052e+06
228390
9.03335e+06
231772
8.88953e+06
237701
8.76065e+06
248698
8.63614e+06
266821
8.5181e+06
283196
8.40064e+06
284353
8.2782e+06
279418
8.14603e+06
278049
8.0115e+06
264624
7.87779e+06
228442
7.72335e+06
206919
7.5669e+06
190291
7.46611e+06
130594
7.46554e+06
21330.5
7.54018e+06
-93220.3
7.64272e+06
-134835
7.7231e+06
-98670.8
7.76331e+06
-58897.7
7.768e+06
-39504.3
7.79456e+06
-67539.3
7.84735e+06
-109744
7.8703e+06
-100956
7.84076e+06
-56269.6
7.79439e+06
-39634.4
7.74401e+06
-48638.5
7.68685e+06
-104752
7.65381e+06
-114055
7.62107e+06
-128227
7.61353e+06
-216496
7.6075e+06
-380266
7.53803e+06
-311930
7.84731e+06
-605540
8.64776e+06
-989950
-1.99383e+06
9.99943e+06
220.929
7264.77
9.99624e+06
310.203
21653.4
9.98877e+06
449.069
35943.6
9.97728e+06
526.033
50217.1
9.96181e+06
647.03
64652.2
9.94234e+06
789.484
79396
9.91905e+06
884.403
94355.5
9.89131e+06
911.879
110200
9.85995e+06
887.59
126187
9.82435e+06
841.767
143141
9.78514e+06
803.178
160240
9.74215e+06
810.934
177821
9.69495e+06
863.529
196022
9.64179e+06
1128.41
214701
9.58464e+06
1365.02
233874
9.51688e+06
2388.29
257059
9.43456e+06
2405.89
280230
9.3455e+06
2285.75
297755
9.24691e+06
744.73
322627
9.13439e+06
681.7
344923
9.01171e+06
1084.87
360085
8.88805e+06
1710.4
369193
8.76604e+06
2700.84
381398
8.6439e+06
4532.86
398809
8.5193e+06
5539.23
417795
8.38952e+06
7519.11
423281
8.24534e+06
11715.6
421631
8.06901e+06
17131.6
437900
7.85687e+06
21249.2
452402
7.60937e+06
18912.4
467044
7.33165e+06
15434.4
485307
7.07628e+06
22655.8
436363
6.88616e+06
45793.2
284659
6.81451e+06
71275.5
18823.3
6.92142e+06
56445.8
-302315
7.03962e+06
-4180.31
-247321
7.07196e+06
-60019.1
-5996.53
7.07666e+06
-82798.6
96662.9
7.04738e+06
-87707.6
162969
7.10578e+06
-45622.6
-17655.6
7.15879e+06
-31657.8
-90599.5
7.14989e+06
-47847.4
6375.37
7.10214e+06
-67091.4
100839
7.06241e+06
-68866
97714.6
7.00901e+06
-65374.8
78253.6
6.89743e+06
-53039.4
61774.3
6.84615e+06
-60249.6
17330.4
6.83198e+06
-73945.7
-51474.8
6.88866e+06
-95789.2
-140343
7.00663e+06
-84456.9
-333510
7.33156e+06
-50715.3
-489698
7.48911e+06
-4779.61
-715148
6.69675e+06
131348
-903390
73993.5
-1.64082e+06
9.99976e+06
7262.29
9.99623e+06
21647.6
9.98863e+06
35929.5
9.97702e+06
50194.2
9.96151e+06
64623.9
9.94211e+06
79366.2
9.91895e+06
94329.4
9.89132e+06
110183
9.86002e+06
126186
9.82442e+06
143156
9.78514e+06
160270
9.74212e+06
177850
9.69485e+06
196021
9.64219e+06
214610
9.58298e+06
233791
9.5141e+06
255974
9.43669e+06
281892
9.34753e+06
301824
9.24853e+06
321829
9.13746e+06
340958
9.01672e+06
354344
8.89533e+06
361553
8.77558e+06
372039
8.65288e+06
395078
8.52834e+06
414658
8.40063e+06
421823
8.26202e+06
433025
8.1024e+06
459221
7.91243e+06
481684
7.67135e+06
494650
7.38893e+06
509198
7.13967e+06
465988
6.99225e+06
329011
6.98248e+06
108412
7.1136e+06
-154267
7.22867e+06
-233564
7.29307e+06
-203469
7.31462e+06
-153483
7.29186e+06
-90761.2
7.32242e+06
-136584
7.36957e+06
-188252
7.3533e+06
-136897
7.28696e+06
-68210.7
7.22037e+06
-76125.7
7.16494e+06
-112893
7.0864e+06
-143836
7.03234e+06
-187845
7.01029e+06
-235908
6.99318e+06
-341756
7.07857e+06
-556091
7.38391e+06
-646233
7.58133e+06
-808912
7.24469e+06
-445108
-1.67439e+06
9.99909e+06
217.962
9294.99
9.99597e+06
305.757
27606.2
9.9888e+06
439.616
46063.5
9.97765e+06
510.316
64633.1
9.96235e+06
623.771
83530.9
9.94287e+06
759.135
102737
9.91835e+06
848.792
122963
9.88912e+06
872.788
143676
9.85471e+06
846.24
164943
9.81506e+06
796.105
187185
9.76977e+06
752.309
210027
9.71837e+06
740.938
233878
9.66071e+06
772.179
258641
9.59646e+06
907.295
284224
9.52486e+06
1107.42
311982
9.44728e+06
2142.82
342164
9.35885e+06
1878.53
376920
9.26225e+06
1192.52
398955
9.16972e+06
579.386
416527
9.07743e+06
1011.83
437592
8.97783e+06
1434.05
459527
8.87003e+06
1385.33
476945
8.74937e+06
1281.25
502285
8.61713e+06
1893.32
530681
8.47452e+06
1685.65
560287
8.31779e+06
2461.98
579806
8.13391e+06
6207.83
602290
7.8991e+06
9138.36
667251
7.58892e+06
7745.88
759472
7.21156e+06
7643.06
841166
6.83889e+06
9055.8
851957
6.53637e+06
14094.5
726849
6.34248e+06
27628.9
452200
6.33022e+06
49396.5
-16953.4
6.49946e+06
38600.3
-509127
6.62463e+06
-67584.8
-301140
6.58611e+06
-167148
204761
6.53716e+06
-236280
384867
6.48288e+06
-233027
454024
6.56554e+06
-131158
36748.1
6.60468e+06
-51305.8
-77672.9
6.58051e+06
-70628.2
102386
6.51732e+06
-69154.6
227860
6.45063e+06
-64693.9
186649
6.37483e+06
-55675.4
142746
6.23312e+06
-65705.4
162877
6.11853e+06
-82994.6
106772
6.04149e+06
-70218.8
1783.27
6.05207e+06
-59710.1
-143891
6.10962e+06
-77820.6
-327414
6.31041e+06
-67750.4
-525511
6.28365e+06
-16975.6
-612380
5.93598e+06
60690.5
-587338
451985
-875688
9.99941e+06
9294.65
9.99596e+06
27603.5
9.98866e+06
46052
9.97739e+06
64620.1
9.96205e+06
83523.3
9.94264e+06
102733
9.91825e+06
122957
9.88914e+06
143662
9.85477e+06
164915
9.81511e+06
187139
9.76974e+06
209963
9.71825e+06
233796
9.66041e+06
258541
9.59626e+06
284099
9.52487e+06
311784
9.44855e+06
341734
9.36375e+06
376583
9.26556e+06
405298
9.17255e+06
417057
9.08075e+06
434975
8.98151e+06
456107
8.87218e+06
473606
8.7492e+06
497519
8.61672e+06
530531
8.47539e+06
558870
8.31669e+06
584653
8.12807e+06
629941
7.89226e+06
706770
7.58941e+06
795364
7.22518e+06
869336
6.8725e+06
872904
6.58732e+06
766749
6.39372e+06
550944
6.37518e+06
178063
6.58305e+06
-319253
6.74676e+06
-456946
6.82638e+06
-443988
6.80366e+06
-361504
6.73595e+06
-249923
6.79233e+06
-318250
6.81786e+06
-263084
6.76669e+06
-155336
6.68062e+06
-60022
6.61467e+06
-103159
6.54713e+06
-154520
6.43986e+06
-179302
6.34935e+06
-257403
6.29622e+06
-327958
6.23469e+06
-380542
6.21466e+06
-568971
6.26034e+06
-769184
6.28422e+06
-755378
6.47293e+06
-538555
-986655
9.99913e+06
217.027
11273.2
9.99608e+06
304.385
33461.3
9.9891e+06
437.139
55979.5
9.97821e+06
504.875
78758.2
9.96331e+06
614.209
101983
9.9442e+06
745.354
125654
9.92066e+06
831.43
150495
9.89262e+06
852.56
175797
9.85942e+06
823.623
202236
9.82097e+06
771.532
229684
9.77708e+06
727.853
258010
9.72752e+06
720.739
287704
9.67242e+06
755.955
318374
9.61105e+06
880.76
350963
9.5438e+06
1114.49
385915
9.47191e+06
1692
423489
9.39494e+06
2671.82
465821
9.29649e+06
3023.51
506449
9.18504e+06
1104.63
531195
9.07783e+06
1328.52
547101
8.97153e+06
2421.77
566310
8.85674e+06
2017.54
593006
8.72344e+06
407.259
637478
8.56882e+06
-429.867
687648
8.39458e+06
-2948.63
739143
8.18924e+06
-3382.46
790540
7.94467e+06
428.345
848763
7.64927e+06
2960.57
961901
7.29623e+06
786.495
1.1139e+06
6.91486e+06
648.389
1.22384e+06
6.56202e+06
4970.22
1.20132e+06
6.26279e+06
14673.5
1.01257e+06
6.04511e+06
30155.6
641540
5.96335e+06
63734.6
2343.58
6.07745e+06
136839
-758492
5.88847e+06
-50619.9
-58991.3
5.94837e+06
-135967
282539
5.99303e+06
-154754
493532
5.84999e+06
-215498
808869
5.87357e+06
-55972.4
68915
5.85849e+06
-23051.3
-37718.9
5.79508e+06
-84864.7
258467
5.77822e+06
-64027.3
323352
5.71418e+06
-45416.6
300960
5.62092e+06
-45334.5
221463
5.54821e+06
-56531.6
166367
5.44374e+06
-55285.3
85305.3
5.35e+06
-26809.7
-41010.6
5.21578e+06
12659
-106375
5.08773e+06
61403.3
-225255
4.81053e+06
83474.6
-334733
4.47975e+06
265357
-465212
4.29223e+06
167588
-475423
124673
-1.00022e+06
9.99945e+06
11269.3
9.99607e+06
33456.2
9.98895e+06
55970.9
9.97795e+06
78751.3
9.963e+06
101981
9.94396e+06
125654
9.92055e+06
150489
9.89263e+06
175776
9.85947e+06
202190
9.82102e+06
229608
9.77705e+06
257900
9.72739e+06
287570
9.67217e+06
318238
9.61072e+06
350829
9.54364e+06
385833
9.4717e+06
423468
9.39478e+06
465513
9.3022e+06
508944
9.19523e+06
530521
9.08672e+06
549255
8.97661e+06
572082
8.85323e+06
601865
8.71331e+06
639950
8.55878e+06
685834
8.38139e+06
734496
8.17041e+06
793540
7.93031e+06
871714
7.64711e+06
994217
7.31323e+06
1.13138e+06
6.95218e+06
1.23233e+06
6.61694e+06
1.21421e+06
6.34458e+06
1.05449e+06
6.17577e+06
751120
6.18455e+06
234498
6.43816e+06
-428763
6.7015e+06
-759856
6.8439e+06
-724521
6.86425e+06
-544365
6.69435e+06
-295704
6.53036e+06
-205102
6.36681e+06
-119218
6.21475e+06
-71200.9
6.16052e+06
-45945.3
6.10077e+06
-99358.4
6.01064e+06
-159672
5.89319e+06
-213596
5.74828e+06
-293323
5.60512e+06
-338038
5.44596e+06
-290949
5.16627e+06
-320089
4.85096e+06
-341721
4.90876e+06
-512083
4.67763e+06
-198535
-759936
9.99916e+06
212.806
13189.5
9.99621e+06
300.781
39176.8
9.9895e+06
430.801
65598.7
9.9791e+06
498.371
92379.2
9.96498e+06
605.767
119611
9.94664e+06
731.409
147723
9.92414e+06
808.691
176857
9.89708e+06
818.238
206734
9.86516e+06
775.59
237955
9.82829e+06
710.043
270240
9.78589e+06
656.373
304073
9.73825e+06
650.478
339242
9.68513e+06
706.468
375932
9.62658e+06
848.771
414854
9.56349e+06
1097.27
455972
9.49631e+06
1613.82
499868
9.42885e+06
2441.5
545633
9.35234e+06
3688.1
595873
9.25613e+06
3177.77
637368
9.14413e+06
2484.61
669209
9.01843e+06
3598.92
699192
8.878e+06
1585.71
740791
8.73082e+06
-1191.11
789478
8.56589e+06
-3135.83
857963
8.36469e+06
-7108.19
949489
8.1121e+06
-6640.63
1.05228e+06
7.81444e+06
-1442.41
1.1502e+06
7.49594e+06
4104.64
1.27812e+06
7.15758e+06
3930.02
1.4499e+06
6.80271e+06
4548.71
1.57563e+06
6.44223e+06
10960.3
1.55232e+06
6.07238e+06
27621.4
1.3571e+06
5.6567e+06
63421.8
996325
5.09507e+06
223906
342690
3.35809e+06
914612
70491.4
2.32379e+06
584835
395653
1.8424e+06
335675
430576
2.69134e+06
198975
-583989
3.28852e+06
24574.1
190739
3.92801e+06
89046.9
-646522
4.16028e+06
47718.7
-306661
4.31656e+06
44294.9
125850
4.41645e+06
80024.1
254370
4.46693e+06
64969.9
230640
4.44375e+06
70799.1
122475
4.38442e+06
49409.9
-1138.67
4.14682e+06
65800.5
-15021.8
3.91618e+06
133828
-210652
3.66306e+06
237322
-321446
3.28559e+06
316870
-417497
3.14845e+06
271019
-559160
3.21382e+06
232174
-713068
3.57884e+06
52558.4
-1.03012e+06
50552.3
-1.80233e+06
9.99947e+06
13188.2
9.9962e+06
39173.5
9.98936e+06
65585.6
9.97884e+06
92367.8
9.96468e+06
119611
9.94641e+06
147730
9.92403e+06
176862
9.89707e+06
206725
9.86519e+06
237923
9.82829e+06
270177
9.78583e+06
303979
9.73809e+06
339123
9.68487e+06
375813
9.62632e+06
414754
9.56319e+06
455946
9.49649e+06
499813
9.42934e+06
545706
9.36008e+06
594294
9.27015e+06
636523
9.15942e+06
673917
9.03298e+06
710643
8.88974e+06
754076
8.73019e+06
802787
8.55144e+06
863127
8.3409e+06
939398
8.08901e+06
1.0403e+06
7.81483e+06
1.14576e+06
7.51746e+06
1.29678e+06
7.19257e+06
1.46131e+06
6.85331e+06
1.57726e+06
6.52466e+06
1.55478e+06
6.22551e+06
1.38279e+06
5.96225e+06
1.07958e+06
5.82277e+06
605196
6.46068e+06
-128033
6.49165e+06
-207839
6.32968e+06
-238553
6.18685e+06
-205960
5.87201e+06
46593.8
5.55814e+06
212804
5.22628e+06
288423
5.06934e+06
181699
5.02542e+06
116271
4.96899e+06
31129.5
4.85017e+06
-22157.6
4.65953e+06
-95417.8
4.39994e+06
-146380
4.11427e+06
-130785
3.81603e+06
13007.7
3.56161e+06
104063
3.32314e+06
91941.2
3.13068e+06
-198159
2.95728e+06
31509.6
-816709
9.9992e+06
210.799
15028.8
9.99647e+06
299.444
44645.1
9.99017e+06
430.557
74764.5
9.98038e+06
497.567
105341
9.96705e+06
600.931
136392
9.94966e+06
719.371
168765
9.92824e+06
788.03
202027
9.90238e+06
788.979
236327
9.87196e+06
739.521
271992
9.83613e+06
670.732
309565
9.7955e+06
620.499
348202
9.74966e+06
627.898
388869
9.69859e+06
712.734
431451
9.64282e+06
889.129
476136
9.58277e+06
1164.57
523029
9.51923e+06
1600.4
572177
9.45263e+06
2173.61
623095
9.38521e+06
3007.33
676308
9.31e+06
3547.4
727997
9.2193e+06
3107.33
778083
9.10828e+06
3085.11
829330
8.97266e+06
954.617
895203
8.81253e+06
-771.424
960219
8.63625e+06
-5026.41
1.0432e+06
8.42585e+06
-11454.2
1.1738e+06
8.15654e+06
-12379.1
1.33656e+06
7.83372e+06
-1077.18
1.47652e+06
7.49472e+06
11607.8
1.60691e+06
7.15625e+06
11340.6
1.77811e+06
6.80282e+06
8206.91
1.92199e+06
6.42543e+06
17263.4
1.91386e+06
5.97888e+06
39702.1
1.76577e+06
5.23979e+06
114961
1.62265e+06
3.10608e+06
598045
1.88107e+06
551994
863510
1.77518e+06
502502
18687.2
426547
516280
92396.7
322218
57592.6
305479
-331617
230570
-269746
374386
877894
-408402
-861230
1.56722e+06
-76192.9
-888139
1.6753e+06
394172
-295866
1.6563e+06
406322
-71137.9
1.69402e+06
280567
-55826.7
1.67741e+06
253904
-180654
1.66157e+06
225977
-382740
1.80648e+06
115108
-505017
2.14616e+06
29059.1
-844189
2.54219e+06
38742.5
-1.04748e+06
3.01857e+06
121118
-1.27635e+06
3.58749e+06
175254
-1.44969e+06
4.17543e+06
145543
-1.63882e+06
4.83725e+06
255936
-1.94135e+06
76866
-2.38347e+06
9.99951e+06
15023.8
9.99646e+06
44636.7
9.99004e+06
74749.3
9.98013e+06
105325
9.96676e+06
136381
9.94943e+06
168757
9.92812e+06
202014
9.90235e+06
236302
9.87196e+06
271949
9.83611e+06
309501
9.79542e+06
348119
9.74951e+06
388770
9.69838e+06
431348
9.6426e+06
476031
9.58263e+06
522935
9.51938e+06
572002
9.45346e+06
622875
9.38667e+06
675137
9.31236e+06
727264
9.22401e+06
779484
9.11748e+06
835251
8.98668e+06
899986
8.81904e+06
979850
8.62807e+06
1.05202e+06
8.39832e+06
1.16e+06
8.12128e+06
1.30652e+06
7.82644e+06
1.44059e+06
7.5232e+06
1.6123e+06
7.20532e+06
1.79109e+06
6.87254e+06
1.91872e+06
6.53203e+06
1.91331e+06
6.19146e+06
1.76405e+06
5.82093e+06
1.56696e+06
5.4607e+06
1.57891e+06
3.90127e+06
2.29708e+06
2.12378e+06
1.58497e+06
1.00622e+06
972192
579825
542755
155183
240729
604585
-624002
944469
-118602
1.12466e+06
408352
1.30054e+06
372087
1.51542e+06
100561
1.6368e+06
79649.2
1.59737e+06
80579.9
1.31052e+06
98708
896116
92720.6
639320
36008.3
795837
-179442
1.29418e+06
-436598
1.83954e+06
-658885
2.99811e+06
-884954
-1.37761e+06
9.99927e+06
205.413
16742.8
9.99681e+06
293.146
49775.6
9.99101e+06
418.536
83366.5
9.98192e+06
481.884
117502
9.96941e+06
579.671
152239
9.95322e+06
690.336
188447
9.93328e+06
751.719
225529
9.90878e+06
747.905
264362
9.87969e+06
698.011
304518
9.84604e+06
633.949
346555
9.80719e+06
594.179
390467
9.76341e+06
614.899
436394
9.71481e+06
714.904
484451
9.66153e+06
893.237
534778
9.60395e+06
1121.78
587009
9.54248e+06
1433.68
641292
9.47743e+06
1742.35
696867
9.41011e+06
2098.61
753841
9.33883e+06
2030.46
811700
9.26152e+06
1722.93
871024
9.17406e+06
1407.28
934923
9.07426e+06
1746.88
1.014e+06
8.94316e+06
2617.43
1.10831e+06
8.77494e+06
-3943.86
1.22371e+06
8.57922e+06
-13607.1
1.38632e+06
8.34833e+06
-16313.3
1.58542e+06
8.06341e+06
-2357.09
1.76426e+06
7.70429e+06
16498.6
1.94897e+06
7.31759e+06
20914.3
2.14263e+06
6.93962e+06
11194
2.28741e+06
6.59024e+06
14674.4
2.24836e+06
6.23532e+06
25400.3
2.09593e+06
5.81082e+06
52306.9
1.99485e+06
5.13189e+06
322706
2.2415e+06
2.85414e+06
728901
3.32484e+06
1.04245e+06
337805
1.91125e+06
158568
266200
1.04751e+06
-366374
101958
305523
253361
-271579
110749
469768
-756862
-335052
469508
-424781
-519872
886822
20347.3
-790477
1.41105e+06
136199
-735042
1.84054e+06
207486
-683022
2.29997e+06
205413
-820403
2.87591e+06
86996
-1.01499e+06
3.52578e+06
67786
-1.21508e+06
4.10922e+06
-4542.78
-1.47226e+06
4.67992e+06
-40919.8
-1.6884e+06
5.15286e+06
-35537.6
-1.85419e+06
5.50768e+06
-24447.8
-1.97201e+06
5.8464e+06
-11597.1
-2.03387e+06
6.02716e+06
28753.5
-2.18506e+06
21326.8
-2.39315e+06
9.99957e+06
16741.8
9.9968e+06
49771.4
9.99087e+06
83350
9.98168e+06
117485
9.96912e+06
152232
9.95299e+06
188446
9.93315e+06
225525
9.90873e+06
264345
9.87967e+06
304480
9.84601e+06
346495
9.8071e+06
390386
9.76327e+06
436299
9.71463e+06
484352
9.66133e+06
534683
9.60384e+06
586927
9.54246e+06
641158
9.47771e+06
696687
9.40999e+06
753467
9.33807e+06
811249
9.26046e+06
870374
9.17474e+06
935647
9.07827e+06
1.01255e+06
8.95439e+06
1.11825e+06
8.78293e+06
1.22676e+06
8.56022e+06
1.37348e+06
8.29588e+06
1.55579e+06
7.98721e+06
1.74744e+06
7.67646e+06
1.93892e+06
7.37167e+06
2.11613e+06
7.04447e+06
2.25658e+06
6.69193e+06
2.2805e+06
6.35151e+06
2.13039e+06
5.99897e+06
1.97459e+06
5.81697e+06
2.08489e+06
6.04235e+06
2.80229e+06
5.07194e+06
2.89645e+06
3.97999e+06
2.34535e+06
2.97605e+06
1.66989e+06
1.82438e+06
1.13211e+06
-213999
638212
-1.33551e+06
536669
-1.15283e+06
232986
-800644
142467
-263142
-223308
255303
-177879
640320
-171415
1.20651e+06
-394895
1.88841e+06
-654180
2.61227e+06
-836094
3.27008e+06
-1.00184e+06
3.86501e+06
-1.16099e+06
4.47646e+06
-1.32803e+06
5.10278e+06
-1.50343e+06
-1.70808e+06
9.99934e+06
203.378
18332.4
9.99722e+06
290.927
54533.9
9.992e+06
416.356
91329.5
9.98374e+06
477.562
128764
9.97229e+06
570.104
166932
9.9574e+06
673.999
206731
9.93877e+06
729.961
247603
9.91619e+06
723.964
290348
9.88902e+06
675.977
334990
9.85728e+06
618.009
381537
9.8209e+06
586.526
430167
9.77942e+06
614.686
481529
9.73307e+06
717.95
535082
9.68221e+06
884.397
590735
9.62666e+06
1081.74
648553
9.5669e+06
1283.16
707813
9.50298e+06
1447.18
768214
9.43604e+06
1616.91
829115
9.36708e+06
1736.01
890320
9.29661e+06
1908.39
953201
9.22469e+06
2088.1
1.0207e+06
9.1524e+06
2731.73
1.10285e+06
9.06716e+06
3241.66
1.2085e+06
8.94757e+06
7456.8
1.35229e+06
8.78868e+06
-318.192
1.55215e+06
8.61179e+06
-6987.55
1.77033e+06
8.38951e+06
-4689.84
1.99071e+06
8.08324e+06
5364.39
2.24528e+06
7.73042e+06
18836.3
2.47164e+06
7.34e+06
28327.6
2.64722e+06
6.89279e+06
32311.6
2.66412e+06
6.42952e+06
27970.2
2.53154e+06
6.02591e+06
34428.1
2.36452e+06
5.93039e+06
51893.1
2.28362e+06
5.91012e+06
276678
3.07706e+06
4.69897e+06
186699
2.95657e+06
3.61032e+06
30099.6
2.15813e+06
2.78787e+06
-98170.8
1.29977e+06
2.54185e+06
-162986
592572
2.62917e+06
-386967
9911
3.09451e+06
-628926
-346899
3.50036e+06
-593256
-617284
3.90475e+06
-335285
-847527
4.27993e+06
-11869.9
-1.09643e+06
4.66924e+06
114896
-1.34047e+06
5.10305e+06
123572
-1.54643e+06
5.53366e+06
118170
-1.71393e+06
5.88611e+06
72246.3
-1.87173e+06
6.15461e+06
8851.8
-2.00064e+06
6.32927e+06
-39129.1
-2.08356e+06
6.42728e+06
-52778.9
-2.10217e+06
6.49717e+06
-64560.5
-2.1053e+06
6.43555e+06
-37204.9
-2.09723e+06
8617.85
-2.19795e+06
9.99965e+06
18327.1
9.99721e+06
54524.2
9.99187e+06
91312
9.9835e+06
128745
9.972e+06
166917
9.95716e+06
206717
9.93863e+06
247584
9.91613e+06
290319
9.88899e+06
334945
9.85724e+06
381475
9.82081e+06
430084
9.77929e+06
481424
9.7329e+06
534951
9.68203e+06
590574
9.62648e+06
648361
9.56672e+06
707577
9.50287e+06
767933
9.4359e+06
828686
9.36688e+06
889716
9.29621e+06
952257
9.22484e+06
1.02005e+06
9.15155e+06
1.10075e+06
9.07688e+06
1.20904e+06
8.97295e+06
1.3498e+06
8.80977e+06
1.54303e+06
8.5924e+06
1.7677e+06
8.29827e+06
2.03487e+06
7.97517e+06
2.26477e+06
7.66686e+06
2.44142e+06
7.36793e+06
2.58327e+06
7.02755e+06
2.65429e+06
6.61388e+06
2.57325e+06
6.19746e+06
2.42594e+06
5.9633e+06
2.37424e+06
6.36027e+06
2.69099e+06
6.57005e+06
2.89467e+06
6.30827e+06
2.6679e+06
5.72833e+06
2.18474e+06
5.06628e+06
1.6609e+06
4.15508e+06
1.18356e+06
3.23229e+06
843880
2.35083e+06
508676
1.91716e+06
201263
1.86285e+06
-224811
2.33233e+06
-545603
3.09989e+06
-787770
3.89145e+06
-1.03086e+06
4.57981e+06
-1.25696e+06
5.14597e+06
-1.41897e+06
5.57974e+06
-1.53658e+06
5.91959e+06
-1.61277e+06
6.19688e+06
-1.717e+06
6.39113e+06
-1.76724e+06
-2.1469e+06
9.99944e+06
197.753
19754
9.9977e+06
283.402
58836
9.99315e+06
401.436
98537.1
9.98585e+06
457.636
138966
9.97563e+06
544.275
180261
9.96222e+06
641.786
223369
9.94534e+06
693.682
267755
9.92466e+06
687.54
314277
9.89981e+06
643.247
363001
9.87051e+06
590.785
413959
9.8365e+06
561.869
467354
9.79773e+06
583.095
523733
9.75397e+06
664.444
582712
9.70502e+06
791.495
644125
9.65114e+06
934.832
707473
9.59225e+06
1055.57
772215
9.52918e+06
1165.73
837301
9.46295e+06
1263.75
901811
9.39628e+06
1447.66
964544
9.33271e+06
1642.06
1.0257e+06
9.27752e+06
2000.95
1.08739e+06
9.23276e+06
1652.35
1.16112e+06
9.19632e+06
2505.46
1.25793e+06
9.14895e+06
10509.1
1.40595e+06
9.04885e+06
15876.7
1.64486e+06
8.88276e+06
12503.5
1.92633e+06
8.64757e+06
2678.44
2.22037e+06
8.40178e+06
-5984.19
2.49274e+06
8.15022e+06
-970.451
2.72218e+06
7.87387e+06
13435.2
2.91144e+06
7.50495e+06
20140.3
3.01524e+06
7.00828e+06
25501.4
3.00706e+06
6.48564e+06
38189.8
2.85219e+06
6.11574e+06
-1307.06
2.66602e+06
6.3627e+06
55703.4
2.80107e+06
6.43227e+06
67774.7
2.86853e+06
6.12707e+06
6164.32
2.52224e+06
5.70002e+06
-84136.5
1.88571e+06
5.38859e+06
-175507
1.15627e+06
5.2535e+06
-265377
477567
5.35187e+06
-343812
-65070.8
5.5648e+06
-357347
-488840
5.80232e+06
-298319
-846577
6.0048e+06
-212320
-1.15002e+06
6.19219e+06
-165414
-1.39972e+06
6.39265e+06
-146991
-1.58612e+06
6.58916e+06
-134269
-1.72151e+06
6.73332e+06
-132577
-1.82667e+06
6.80403e+06
-143131
-1.91001e+06
6.81497e+06
-153723
-1.97501e+06
6.78764e+06
-147351
-1.99232e+06
6.78417e+06
-141732
-1.99275e+06
6.6357e+06
-115026
-1.88077e+06
48266.9
-2.04359e+06
9.99973e+06
19753.3
9.99769e+06
58831.8
9.99302e+06
98520.8
9.98561e+06
138948
9.97535e+06
180252
9.96199e+06
223365
9.9452e+06
267747
9.92459e+06
314257
9.89978e+06
362964
9.87045e+06
413902
9.8364e+06
467279
9.79757e+06
523642
9.75377e+06
582605
9.70479e+06
644002
9.65088e+06
707332
9.592e+06
772055
9.5289e+06
837091
9.46274e+06
901532
9.39606e+06
964143
9.33241e+06
1.02511e+06
9.27641e+06
1.08727e+06
9.23056e+06
1.15903e+06
9.19693e+06
1.25718e+06
9.16337e+06
1.40423e+06
9.08816e+06
1.64072e+06
8.92685e+06
1.94195e+06
8.69602e+06
2.26519e+06
8.41476e+06
2.53777e+06
8.11327e+06
2.74274e+06
7.81533e+06
2.89751e+06
7.50112e+06
2.99258e+06
7.11235e+06
2.99107e+06
6.66789e+06
2.91311e+06
6.24877e+06
2.80283e+06
6.24442e+06
2.77379e+06
6.51491e+06
2.72496e+06
6.72895e+06
2.49936e+06
6.758e+06
2.11149e+06
6.64849e+06
1.63198e+06
6.47121e+06
1.12633e+06
6.31809e+06
663902
6.19917e+06
252355
6.19214e+06
-128720
6.23434e+06
-519341
6.35524e+06
-846719
6.52624e+06
-1.08732e+06
6.68033e+06
-1.28177e+06
6.77488e+06
-1.45389e+06
6.82156e+06
-1.60863e+06
6.85324e+06
-1.75649e+06
6.94684e+06
-1.89783e+06
7.13384e+06
-2.0857e+06
7.4556e+06
-2.19277e+06
-2.89184e+06
9.99954e+06
196.101
21014.6
9.99824e+06
281.204
62656.4
9.99446e+06
399.469
104923
9.98824e+06
453.436
148017
9.97942e+06
535.105
192116
9.96773e+06
626.992
238207
9.95265e+06
675.507
286008
9.93425e+06
669.721
335832
9.91217e+06
629.338
388165
9.88564e+06
582.556
443531
9.85434e+06
557.578
501757
9.81835e+06
575.848
563031
9.77706e+06
644.415
627663
9.73043e+06
750.778
694873
9.67775e+06
867.719
764738
9.61933e+06
973.076
835681
9.55548e+06
1056.13
906571
9.48805e+06
1150.88
975166
9.42057e+06
1297.97
1.03871e+06
9.35979e+06
1607.89
1.09453e+06
9.31656e+06
1840.11
1.14076e+06
9.30239e+06
2153.41
1.18608e+06
9.31805e+06
3111.6
1.25053e+06
9.36324e+06
8107.52
1.36715e+06
9.35098e+06
16653.5
1.65511e+06
9.19922e+06
16045.9
2.06425e+06
8.95031e+06
4544.1
2.46317e+06
8.68165e+06
-4223.47
2.76731e+06
8.42102e+06
-4636.19
2.99477e+06
8.16328e+06
-456.805
3.17922e+06
7.87524e+06
1610.64
3.31132e+06
7.51797e+06
2876.22
3.36924e+06
7.05112e+06
3481.05
3.32352e+06
6.55569e+06
-4624.14
3.18113e+06
6.37752e+06
4731.87
3.00285e+06
6.46732e+06
15447.6
2.80265e+06
6.56288e+06
5766.04
2.46573e+06
6.56183e+06
-35370.6
1.96517e+06
6.50365e+06
-98124.1
1.35104e+06
6.46627e+06
-157688
698788
6.50014e+06
-199218
104025
6.58709e+06
-220734
-382565
6.68947e+06
-219617
-775835
6.78251e+06
-206591
-1.08815e+06
6.84959e+06
-183901
-1.31644e+06
6.90385e+06
-167650
-1.47271e+06
6.95e+06
-150606
-1.58184e+06
6.98472e+06
-137700
-1.67052e+06
6.99118e+06
-132301
-1.74997e+06
6.97684e+06
-128646
-1.82183e+06
7.00634e+06
-127758
-1.88849e+06
7.11769e+06
-121903
-1.97243e+06
7.38805e+06
-86745.8
-1.98041e+06
39626.2
-2.34565e+06
9.99983e+06
21009.6
9.99823e+06
62647.7
9.99434e+06
104907
9.98801e+06
147999
9.97914e+06
192102
9.96749e+06
238194
9.9525e+06
285991
9.93417e+06
335805
9.91212e+06
388122
9.88558e+06
443472
9.85423e+06
501678
9.81818e+06
562928
9.77684e+06
627534
9.73018e+06
694713
9.67748e+06
764549
9.61902e+06
835463
9.55514e+06
906336
9.48771e+06
974904
9.42019e+06
1.03847e+06
9.3595e+06
1.09428e+06
9.3155e+06
1.14172e+06
9.30149e+06
1.1862e+06
9.3236e+06
1.24909e+06
9.37497e+06
1.37314e+06
9.36912e+06
1.66833e+06
9.2282e+06
2.09963e+06
9.00248e+06
2.49605e+06
8.74619e+06
2.79382e+06
8.4712e+06
3.02051e+06
8.17835e+06
3.19914e+06
7.8651e+06
3.3162e+06
7.50804e+06
3.35865e+06
7.10172e+06
3.33126e+06
6.67992e+06
3.2332e+06
6.40487e+06
3.07284e+06
6.34284e+06
2.82667e+06
6.41379e+06
2.45839e+06
6.52177e+06
1.98892e+06
6.61483e+06
1.45534e+06
6.69409e+06
893963
6.77621e+06
371145
6.85448e+06
-74638.4
6.92221e+06
-451562
6.94669e+06
-779317
6.9403e+06
-1.03779e+06
6.91863e+06
-1.22703e+06
6.9075e+06
-1.39467e+06
6.94607e+06
-1.59529e+06
7.07619e+06
-1.84672e+06
7.34719e+06
-2.14351e+06
7.81718e+06
-2.48765e+06
8.51248e+06
-2.85418e+06
9.48891e+06
-3.22697e+06
-3.93983e+06
9.99966e+06
190.892
22068.8
9.99886e+06
274.517
65908.1
9.99595e+06
384.822
110367
9.99096e+06
433.576
155745
9.98351e+06
510.069
202472
9.97394e+06
597.371
250790
9.96135e+06
644.222
301649
9.94558e+06
640.441
354634
9.92603e+06
604.28
410695
9.90271e+06
561.065
469803
9.87494e+06
534.071
532490
9.84206e+06
540.37
598987
9.8038e+06
584.748
669205
9.75914e+06
659.227
743113
9.70779e+06
746.9