/*--------------------------------*- C++ -*----------------------------------*\
| =========                 |                                                 |
| \\      /  F ield         | OpenFOAM: The Open Source CFD Toolbox           |
|  \\    /   O peration     | Version:  4.1                                   |
|   \\  /    A nd           | Web:      www.OpenFOAM.org                      |
|    \\/     M anipulation  |                                                 |
\*---------------------------------------------------------------------------*/
FoamFile
{
    version     2.0;
    format      ascii;
    class       volVectorField;
    location    "50";
    object      U;
}
// * * * * * * * * * * * * * * * * * * * * * * * * * * * * * * * * * * * * * //

dimensions      [0 1 -1 0 0 0 0];

internalField   nonuniform List<vector> 
4432
(
(39.9815 0.000341137 0.0509132)
(39.919 0.000813666 0.0914821)
(39.8283 0.00182504 0.121642)
(39.7034 0.00211823 0.151111)
(39.5349 0.00180975 0.181543)
(39.3256 0.00151824 0.212977)
(39.08 0.00149949 0.245637)
(38.7983 0.00172991 0.27909)
(38.4763 0.00211604 0.313585)
(38.11 0.0025249 0.34892)
(37.6973 0.00290133 0.383654)
(37.2397 0.00328296 0.418572)
(36.7435 0.00356297 0.44746)
(36.2276 0.00383385 0.470089)
(35.7068 0.00222149 0.465483)
(35.294 -0.00266297 0.412755)
(34.9568 0.00021901 0.456156)
(34.8512 0.00456462 0.358451)
(34.9695 0.00559007 0.255838)
(34.9876 0.00766921 0.372469)
(34.7848 0.00182179 0.462126)
(34.4518 -0.00932193 0.589886)
(34.0077 -0.0213255 0.675843)
(33.4843 -0.0302942 0.681154)
(32.879 -0.0362045 0.681827)
(32.2193 -0.0416065 0.572605)
(31.5973 -0.0385253 0.382438)
(31.051 -0.0237795 0.173381)
(30.6296 -0.010161 0.0834938)
(30.3231 -0.0104845 0.0839788)
(30.102 -0.0223838 0.187875)
(29.8861 -0.0393022 0.393501)
(29.6311 -0.048075 0.404585)
(29.5296 -0.0218337 -0.0629834)
(29.6979 0.0234817 -0.902484)
(30.0705 0.0518454 -1.32855)
(30.6694 0.0559887 -1.21471)
(31.0304 -0.0518768 -1.14728)
(31.0567 -0.0382406 -0.970924)
(31.1347 0.0810417 -0.700543)
(31.4447 0.135841 -0.601736)
(31.6393 0.12106 -0.636191)
(31.733 0.044707 -0.577987)
(31.6271 -0.00022118 -0.523281)
(31.523 0.0178265 -0.497198)
(31.2727 0.123003 -0.581509)
(31.0874 0.138918 -0.431071)
(31.5021 -0.116257 -0.571981)
(31.4509 -0.177731 -0.784825)
(31.0282 -0.247676 -0.986933)
(31.262 -0.0345114 -0.721476)
(33.0683 -0.018265 -1.82451)
(35.2594 -0.118557 -3.01188)
(38.3968 0.157605 -1.59408)
(39.982 0.000341136 0.0509119)
(39.9197 0.000813659 0.0915248)
(39.8286 0.00182477 0.121749)
(39.7023 0.00211933 0.151126)
(39.5333 0.00181122 0.181395)
(39.3243 0.00151922 0.212802)
(39.0792 0.00149821 0.245412)
(38.7977 0.00172662 0.278959)
(38.4756 0.00211072 0.31374)
(38.1089 0.00251822 0.349313)
(37.6954 0.00289544 0.384653)
(37.237 0.00327941 0.419714)
(36.7404 0.00356155 0.449873)
(36.2201 0.00383567 0.471561)
(35.7 0.00222041 0.473832)
(35.2394 -0.00265047 0.424036)
(34.9009 0.000236887 0.403143)
(34.8409 0.00450845 0.309557)
(34.9637 0.00573536 0.2434)
(35.0113 0.00763578 0.381264)
(34.8116 0.00171558 0.447423)
(34.4746 -0.00930894 0.506998)
(34.0411 -0.0213721 0.558477)
(33.518 -0.0308267 0.564088)
(32.8986 -0.0370366 0.567664)
(32.2086 -0.0430027 0.446275)
(31.5399 -0.0415845 0.269724)
(30.9645 -0.0280668 0.14305)
(30.4973 -0.0154256 0.0538044)
(30.1413 -0.0172764 -0.0761295)
(29.9694 -0.030349 -0.247919)
(29.9301 -0.0510776 -0.324389)
(29.9016 -0.0619913 -0.234746)
(29.8967 -0.0374075 -0.163556)
(30.0814 0.0160742 -0.485066)
(30.4009 0.0591131 -0.800586)
(30.878 0.0698313 -0.728557)
(31.1762 -0.0399433 -0.669655)
(31.4323 -0.0652491 -0.550277)
(31.5398 0.0461526 -0.436376)
(31.7267 0.138242 -0.361892)
(31.8307 0.15401 -0.361436)
(31.9605 0.0786041 -0.286177)
(31.9366 0.0320356 -0.247936)
(32.0169 0.053502 -0.3025)
(31.765 0.155847 -0.552825)
(31.1891 0.191041 -0.40417)
(31.6033 -0.0865456 -0.256184)
(31.6922 -0.152617 -0.355923)
(31.4733 -0.179088 -0.463785)
(31.8541 0.00841601 -0.74306)
(33.2678 0.00986508 -1.51305)
(35.3742 -0.0903958 -2.85108)
(39.2526 0.158092 -1.49058)
(40.0084 0.000344403 0.0189302)
(40.0381 0.000794677 0.0582219)
(40.0774 0.00181512 0.0994784)
(40.1183 0.00212159 0.140915)
(40.1515 0.00181219 0.182383)
(40.1793 0.001513 0.224438)
(40.2062 0.00152834 0.267556)
(40.2329 0.00188637 0.312244)
(40.2568 0.00249972 0.35911)
(40.2755 0.00324402 0.408531)
(40.2868 0.00399085 0.4603)
(40.2877 0.00459897 0.512696)
(40.2762 0.00535547 0.562651)
(40.2325 0.00539659 0.599772)
(40.1696 0.0102983 0.623871)
(39.9001 0.0117214 0.616427)
(39.6408 0.0116794 0.48285)
(38.949 0.0119575 0.392958)
(37.9771 0.00178025 0.404763)
(37.1467 -0.00169145 0.439871)
(36.4279 0.000749767 0.500073)
(35.7964 0.00395095 0.590283)
(35.2581 0.0072816 0.692231)
(34.7427 0.0107687 0.809305)
(34.2424 0.012933 0.906981)
(33.7494 0.0153974 0.935726)
(33.2497 0.0191305 0.905056)
(32.7198 0.0296079 0.851696)
(32.0866 0.0507334 0.765552)
(31.4182 0.0610853 0.632546)
(30.759 0.0630801 0.477626)
(30.1109 0.0608429 0.384758)
(29.6685 0.054991 0.251285)
(29.5261 0.0477228 0.0459067)
(29.7091 0.035495 -0.0519583)
(30.0249 0.00673615 0.048556)
(30.3856 -0.0457301 0.30949)
(30.5341 -0.0778867 0.425401)
(30.6156 -0.0515647 0.467218)
(30.7434 -0.0273523 0.359507)
(30.9061 -0.0600037 0.102661)
(30.9548 -0.14074 0.0220347)
(30.8948 -0.216757 0.06306)
(30.5875 -0.257178 0.108695)
(30.2775 -0.303483 0.138416)
(30.0162 -0.320788 -0.0283831)
(29.6667 -0.341939 0.168073)
(29.8727 -0.350861 -0.155541)
(29.3421 -0.33643 -0.5991)
(29.5332 -0.427652 -0.953369)
(29.2307 -0.311292 -0.831327)
(27.6444 0.0853184 -2.21053)
(32.9976 0.291356 -3.54223)
(35.8279 0.0626245 -6.68826)
(40.009 0.000344398 0.018919)
(40.0388 0.000794703 0.0582337)
(40.0777 0.00181517 0.0994459)
(40.1172 0.00212169 0.140805)
(40.1497 0.00181234 0.182222)
(40.1777 0.00151321 0.224291)
(40.2053 0.00152863 0.267538)
(40.2327 0.00188699 0.312472)
(40.2573 0.00249866 0.359732)
(40.2764 0.00324711 0.40954)
(40.2882 0.00398283 0.461694)
(40.2895 0.00460704 0.514485)
(40.2773 0.00532813 0.56411)
(40.2405 0.00554097 0.603379)
(40.1669 0.0097001 0.618999)
(39.9989 0.0118847 0.589331)
(39.7036 0.012641 0.495247)
(38.9844 0.012376 0.376636)
(37.9935 0.001884 0.385453)
(37.1403 -0.00148253 0.428577)
(36.4418 0.000880358 0.479308)
(35.8169 0.00411938 0.559526)
(35.2806 0.00757473 0.645562)
(34.7768 0.0114121 0.744063)
(34.2913 0.013876 0.832854)
(33.8292 0.0170813 0.858841)
(33.36 0.022909 0.858182)
(32.8508 0.0334406 0.846491)
(32.3095 0.0494498 0.766507)
(31.7942 0.0655278 0.589497)
(31.2205 0.0796733 0.402419)
(30.5308 0.0933059 0.27742)
(29.9754 0.0853059 0.12757)
(29.7889 0.0712612 -0.0457406)
(29.9699 0.0473382 -0.163664)
(30.2862 0.0228791 -0.122229)
(30.7534 -0.0406774 0.0435631)
(31.0089 -0.0835363 0.179507)
(31.1108 -0.0716193 0.211858)
(31.0841 -0.0431667 0.127004)
(31.3142 -0.0132357 0.00143268)
(31.4385 -0.0659973 0.00383725)
(31.4795 -0.150381 0.124559)
(31.2718 -0.202421 0.184546)
(31.0487 -0.268072 0.1298)
(30.8948 -0.294065 -0.191922)
(30.6088 -0.312233 -0.111583)
(30.7476 -0.325149 -0.102095)
(30.6533 -0.318234 -0.365257)
(30.3999 -0.397464 -1.18386)
(29.7999 -0.177703 -1.04229)
(29.5973 0.103281 -2.32412)
(34.2973 0.237821 -2.88871)
(37.1496 -0.0183799 -5.62968)
(39.9997 0.00033907 0.0261348)
(39.9918 0.000785669 0.0751521)
(39.9736 0.0017875 0.121249)
(39.9406 0.00208014 0.165428)
(39.8851 0.00177783 0.20941)
(39.8103 0.00151799 0.254332)
(39.7215 0.00160464 0.300862)
(39.6201 0.00205978 0.349528)
(39.5047 0.00278024 0.400798)
(39.3736 0.00361864 0.454835)
(39.2257 0.0044059 0.511406)
(39.0611 0.00505697 0.569748)
(38.8786 0.00542412 0.628868)
(38.6789 0.00592494 0.686725)
(38.4485 0.00591475 0.74664)
(38.2268 0.00778707 0.816579)
(37.9253 0.00816548 0.854053)
(37.5309 0.00780719 0.951538)
(37.1866 0.00319937 1.1162)
(36.7734 0.00206912 1.22559)
(36.2896 0.00320041 1.26634)
(35.7836 0.00517169 1.27847)
(35.2941 0.00808214 1.30883)
(34.8053 0.0130624 1.36107)
(34.3141 0.0163531 1.41608)
(33.8175 0.021939 1.41607)
(33.2799 0.0336853 1.36556)
(32.658 0.0512705 1.34132)
(31.8842 0.0675924 1.26474)
(30.9717 0.0608028 1.19496)
(29.8831 0.0513566 1.22067)
(28.7441 0.0692963 1.1615)
(27.8942 0.126758 0.816475)
(27.2727 0.226655 0.150986)
(27.1897 0.282178 -0.957774)
(27.9642 0.0672654 -0.940904)
(28.3101 -0.185815 -0.401515)
(28.3996 -0.317897 0.0557552)
(28.2197 -0.372064 0.339575)
(28.2856 -0.199908 -0.122719)
(28.4989 -0.133107 -0.454275)
(28.6396 -0.207428 -0.262574)
(28.5564 -0.270816 -0.0545038)
(28.3623 -0.312675 -0.0598575)
(28.0817 -0.341451 -0.0281302)
(27.8964 -0.32204 -0.057826)
(27.4842 -0.334639 -0.00812597)
(27.4075 -0.279791 -0.280532)
(27.2924 -0.300922 -0.708176)
(27.5814 -0.292995 -1.47768)
(28.6254 -0.163756 -1.55571)
(29.8762 -0.13308 -1.79344)
(29.1817 0.37036 -5.57666)
(25.1505 0.734068 -9.61386)
(40.0002 0.000339065 0.0261243)
(39.9925 0.000785697 0.0751327)
(39.9738 0.00178754 0.12119)
(39.9394 0.00208022 0.165345)
(39.8834 0.00177794 0.209331)
(39.809 0.00151817 0.254281)
(39.7209 0.00160492 0.300858)
(39.6201 0.00206028 0.349588)
(39.5051 0.00278118 0.400938)
(39.3741 0.00361983 0.455037)
(39.226 0.00440666 0.511653)
(39.061 0.00505883 0.569967)
(38.8787 0.00542567 0.62879)
(38.6777 0.00593104 0.686303)
(38.4537 0.00590705 0.743019)
(38.2053 0.00777419 0.806061)
(37.9261 0.00726618 0.875399)
(37.5469 0.00822977 0.958681)
(37.1885 0.0034532 1.10764)
(36.7823 0.00218523 1.20966)
(36.306 0.00333243 1.24534)
(35.8079 0.00536752 1.24929)
(35.3285 0.00843785 1.2675)
(34.844 0.0139965 1.32878)
(34.349 0.0178209 1.38746)
(33.8566 0.0240396 1.39043)
(33.3287 0.0372467 1.37294)
(32.74 0.0560613 1.37713)
(32.0677 0.0731149 1.3384)
(31.252 0.0757675 1.23673)
(30.1097 0.0653411 1.27402)
(28.9569 0.0784459 1.24742)
(28.1505 0.146147 0.872836)
(27.863 0.223777 0.231904)
(28.0528 0.208145 -0.398395)
(28.624 0.0802254 -0.641805)
(29.1285 -0.0992497 -0.515437)
(29.2719 -0.260846 -0.391855)
(29.2444 -0.342901 -0.389006)
(29.169 -0.26314 -0.586488)
(29.4643 -0.158502 -0.765066)
(29.4125 -0.159108 -0.667275)
(29.3429 -0.222656 -0.527775)
(28.9993 -0.240297 -0.51624)
(28.7126 -0.288561 -0.493995)
(28.5423 -0.279823 -0.556477)
(28.2799 -0.303977 -0.655446)
(28.2129 -0.250579 -0.810313)
(27.8097 -0.291959 -1.40573)
(28.0453 -0.208606 -2.05641)
(28.8037 -0.148473 -2.02519)
(30.0444 -0.0906262 -2.19704)
(31.8249 -0.0222584 -1.69212)
(26.4548 0.836689 -9.07296)
(39.9994 0.000334385 0.0332085)
(39.9906 0.000776053 0.0980705)
(39.9727 0.00175659 0.163545)
(39.9412 0.00203623 0.23009)
(39.8872 0.00172402 0.298447)
(39.8126 0.00144729 0.368991)
(39.7219 0.0015095 0.441855)
(39.6157 0.00193742 0.517107)
(39.4915 0.00263502 0.594781)
(39.3463 0.00345383 0.674777)
(39.1778 0.00423483 0.756874)
(38.9847 0.00485472 0.840873)
(38.7658 0.00520589 0.926813)
(38.5209 0.00541146 1.01572)
(38.2468 0.00514102 1.1109)
(37.9571 0.00649496 1.21522)
(37.6352 0.00553847 1.36245)
(37.1986 0.00418247 1.42687)
(36.8479 0.00269245 1.47447)
(36.4991 0.00313241 1.55527)
(36.108 0.00431498 1.64116)
(35.6885 0.0045446 1.69647)
(35.2343 0.00462579 1.755)
(34.7219 0.0064253 1.83442)
(34.1764 0.00622644 1.92934)
(33.598 0.00838931 1.97376)
(32.9215 0.0189537 2.00516)
(32.1072 0.0300535 2.1476)
(31.0729 0.0293801 2.34769)
(29.642 0.0282934 2.55769)
(28.0183 0.0331713 2.69202)
(26.6752 0.0520777 2.37548)
(25.671 0.0996749 1.53701)
(25.0724 0.176923 -0.00649619)
(25.5269 0.170552 -1.71593)
(26.3001 -0.11306 -1.15502)
(26.5559 -0.429863 -0.000328469)
(26.3526 -0.736613 0.511463)
(25.9764 -0.640642 0.892509)
(26.0989 -0.233776 -0.0112031)
(26.2431 -0.128804 -0.340381)
(26.4546 -0.238141 0.164689)
(26.2484 -0.323545 0.697105)
(25.916 -0.335675 0.684668)
(25.6455 -0.285165 0.569463)
(25.2582 -0.272144 0.6102)
(24.7573 -0.36245 0.269934)
(24.339 -0.235055 0.0727932)
(24.2758 -0.266593 -0.303808)
(23.9158 -0.29139 -1.2142)
(24.8112 -0.223102 -2.56964)
(25.4947 -0.245601 -3.35572)
(25.6364 0.0556044 -3.48647)
(20.0411 1.51537 -4.23989)
(39.9999 0.00033438 0.0332023)
(39.9913 0.00077608 0.098055)
(39.9729 0.00175663 0.163506)
(39.94 0.0020363 0.230035)
(39.8855 0.00172414 0.298383)
(39.8112 0.00144747 0.368912)
(39.7212 0.00150978 0.441747)
(39.6157 0.00193789 0.516961)
(39.4919 0.00263578 0.594594)
(39.3467 0.00345486 0.674546)
(39.178 0.00423634 0.756615)
(38.9844 0.00485648 0.840566)
(38.7651 0.00520678 0.926454)
(38.5193 0.00541748 1.01506)
(38.2478 0.00513775 1.10989)
(37.9527 0.0065584 1.21408)
(37.6522 0.00545192 1.35628)
(37.219 0.00427466 1.45603)
(36.856 0.00272355 1.4784)
(36.5114 0.00318375 1.54116)
(36.123 0.00451645 1.61846)
(35.7043 0.00488595 1.66696)
(35.2364 0.00488505 1.724)
(34.7154 0.00616098 1.83949)
(34.1823 0.00593207 1.93464)
(33.6005 0.0081055 1.992)
(32.9048 0.0206984 2.09927)
(32.0757 0.0332952 2.30106)
(31.0598 0.0319665 2.53208)
(29.6573 0.0306497 2.74241)
(28.1099 0.0337191 2.81888)
(26.8535 0.05028 2.54779)
(25.8989 0.0964413 1.92623)
(25.2736 0.195316 0.780332)
(25.6994 0.203266 -0.912574)
(26.6602 -0.10589 -1.33702)
(27.2924 -0.426694 -1.077)
(27.4286 -0.841541 -0.73095)
(27.1055 -1.08956 -0.213339)
(27.022 -0.881366 -0.557043)
(27.1656 -0.268971 -0.848907)
(27.2093 -0.234264 -0.625737)
(26.916 -0.249706 -0.251747)
(26.501 -0.285905 -0.288997)
(26.4478 -0.233181 -0.431023)
(25.9025 -0.213867 -0.413329)
(25.7023 -0.226614 -0.727165)
(25.3422 -0.138405 -1.05592)
(25.0975 -0.16922 -1.41685)
(24.754 -0.172499 -2.27827)
(24.8163 -0.161948 -3.16043)
(25.1605 0.0101321 -3.5868)
(26.4275 -0.468999 -3.79916)
(24.4719 1.68402 -5.53758)
(39.9994 0.000333041 0.041085)
(39.9909 0.000772634 0.122132)
(39.9734 0.0017508 0.204375)
(39.9427 0.00202326 0.287343)
(39.89 0.00170676 0.371551)
(39.8174 0.00142624 0.457699)
(39.7294 0.00148185 0.546343)
(39.6267 0.00189982 0.637947)
(39.5069 0.00258452 0.7329)
(39.367 0.00338689 0.831507)
(39.2045 0.00415083 0.934023)
(39.0183 0.00475535 1.04074)
(38.8076 0.00508789 1.1523)
(38.5721 0.00523336 1.27007)
(38.3142 0.00512879 1.39659)
(38.0311 0.00549724 1.53463)
(37.7502 0.00609232 1.68983)
(37.3907 0.00892517 1.82117)
(36.927 0.00540506 1.89434)
(36.5144 0.00502709 1.94313)
(36.096 0.00661397 2.02367)
(35.6504 0.00572944 2.11435)
(35.1591 0.00236295 2.26894)
(34.5747 -0.000897946 2.42125)
(33.9302 -0.00766745 2.56763)
(33.1985 -0.00985335 2.68902)
(32.2858 0.000533165 2.84653)
(31.2271 0.010654 3.22874)
(29.95 0.0078244 3.76834)
(28.4024 0.0092292 4.1913)
(26.8889 0.0235784 4.14044)
(25.6033 0.0566818 3.45726)
(24.507 0.118814 2.059)
(23.7927 0.235293 -0.304892)
(24.219 0.341303 -2.60959)
(23.5655 -0.0793785 -1.72032)
(23.8911 -0.691816 1.51911)
(23.8941 -1.04979 2.60649)
(23.8262 -1.22087 2.75253)
(23.5212 -0.341144 0.542587)
(23.1592 -0.0945266 -0.213383)
(23.5142 -0.327856 0.532451)
(23.1612 -0.434279 0.989051)
(22.9204 -0.415508 0.866857)
(22.6879 -0.327037 0.595698)
(22.1951 -0.207365 0.443949)
(21.9442 -0.0229934 0.0158217)
(21.7306 0.0208602 -0.388977)
(21.4359 -0.301295 -0.586138)
(20.8812 -0.192902 -0.793165)
(19.4571 -0.18349 -1.23097)
(17.717 0.883878 -2.08801)
(20.5173 -0.0849276 -1.86721)
(14.7004 -0.319709 -1.29325)
(40 0.000333036 0.0410763)
(39.9915 0.000772661 0.122116)
(39.9737 0.00175084 0.204332)
(39.9416 0.00202334 0.287299)
(39.8883 0.00170687 0.371532)
(39.816 0.00142641 0.457699)
(39.7287 0.00148213 0.546338)
(39.6267 0.0019003 0.637907)
(39.5073 0.00258526 0.732792)
(39.3674 0.00338801 0.831303)
(39.2047 0.00415191 0.933704)
(39.018 0.00475833 1.04032)
(38.8069 0.00509416 1.15179)
(38.571 0.00523889 1.26951)
(38.3129 0.00515005 1.39602)
(38.0314 0.00545645 1.53406)
(37.7428 0.00614289 1.68941)
(37.3957 0.0081759 1.84406)
(36.9702 0.00487861 1.8995)
(36.5525 0.00522499 1.93538)
(36.1264 0.00732914 2.0123)
(35.6657 0.00725627 2.1119)
(35.1184 0.00267213 2.25957)
(34.5297 -0.00112028 2.41197)
(33.9015 -0.00793006 2.55308)
(33.121 -0.0104511 2.71188)
(32.2048 0.00142185 2.96998)
(31.193 0.0118434 3.39158)
(29.974 0.00857673 3.878)
(28.517 0.00862727 4.25414)
(27.0731 0.0213456 4.20146)
(25.8516 0.0527792 3.6151)
(24.925 0.10692 2.48038)
(24.467 0.233458 0.568413)
(25.0721 0.487967 -1.7819)
(26.0466 0.247121 -2.60466)
(27.3197 0.127725 -2.68151)
(27.7193 0.10711 -2.25764)
(27.2996 -0.0865967 -1.58441)
(26.7113 0.00869716 -1.47016)
(25.3644 0.0488645 -1.0206)
(25.2044 -0.162999 -0.620805)
(24.6959 -0.202912 -0.350905)
(24.4897 -0.186454 -0.601148)
(24.2487 -0.100473 -0.855974)
(23.8214 0.061045 -1.07916)
(23.3981 0.316925 -1.32868)
(22.8517 0.364377 -1.49984)
(22.3063 0.295815 -1.39419)
(21.3301 0.210578 -1.99656)
(19.5791 0.40205 -2.60054)
(19.1277 0.774707 -2.38176)
(21.3461 0.25994 -1.34386)
(16.5937 0.661073 -2.00705)
(39.9995 0.000325927 0.0488671)
(39.9911 0.000763379 0.145368)
(39.9744 0.00171629 0.243376)
(39.945 0.0019914 0.342572)
(39.8946 0.00169808 0.443774)
(39.8252 0.0014361 0.547918)
(39.7411 0.00149158 0.655631)
(39.6429 0.00188622 0.767345)
(39.5281 0.00252262 0.883385)
(39.3934 0.00325383 1.00403)
(39.2367 0.00392926 1.12955)
(39.0569 0.00444545 1.26036)
(38.8538 0.00471933 1.39713)
(38.6283 0.00481774 1.54117)
(38.382 0.00473599 1.69439)
(38.1191 0.00512351 1.85894)
(37.8411 0.00564799 2.03432)
(37.5708 0.00862052 2.22752)
(37.2023 0.0112415 2.37427)
(36.795 0.0112866 2.45852)
(36.3394 0.011613 2.51918)
(35.7773 0.00677537 2.62806)
(35.1961 -0.00116833 2.82966)
(34.588 -0.00897975 3.08172)
(33.8765 -0.020602 3.35204)
(33.003 -0.0224545 3.63969)
(31.8575 -0.00677708 3.94097)
(30.6123 0.0129354 4.46335)
(29.3277 0.0163731 5.14909)
(27.9129 0.0201137 5.61728)
(26.4726 0.0418328 5.47501)
(25.0444 0.0974615 4.6305)
(23.3921 0.22033 3.03692)
(21.8759 0.577421 0.402039)
(20.9361 1.11898 -1.43287)
(3.82846 0.0695182 1.63088)
(9.54253 -0.495105 0.774319)
(10.0355 -1.00039 0.65695)
(12.0523 -1.85496 2.96386)
(14.3067 -0.558041 -0.934428)
(16.9534 -0.121511 -0.239439)
(16.9503 -0.630559 2.00893)
(17.2751 -0.581703 2.02411)
(17.6907 -0.491439 1.45106)
(17.9373 -0.36238 0.873422)
(17.5553 -0.343328 0.595288)
(17.0975 -0.0515569 0.652365)
(16.4498 0.163226 0.486395)
(15.8752 0.14252 0.201295)
(14.0862 0.052988 -0.278157)
(11.8481 0.00107283 -0.739715)
(11.3749 0.173608 -1.18539)
(16.3035 -0.345668 -2.0984)
(14.3684 -0.887003 -6.0965)
(40 0.000325919 0.0488565)
(39.9918 0.000763412 0.14535)
(39.9746 0.0017163 0.243333)
(39.9439 0.00199161 0.342539)
(39.893 0.00169759 0.44378)
(39.8239 0.00143442 0.547952)
(39.7405 0.0014897 0.65566)
(39.6429 0.0018845 0.767323)
(39.5283 0.00252116 0.883267)
(39.3937 0.00325273 1.00377)
(39.2367 0.00392824 1.12915)
(39.0565 0.00444538 1.2598)
(38.853 0.00472645 1.39653)
(38.6271 0.00482175 1.54053)
(38.3812 0.00475948 1.69401)
(38.1177 0.00505086 1.85849)
(37.843 0.00583464 2.03474)
(37.5664 0.00812393 2.22184)
(37.2572 0.00869435 2.35909)
(36.862 0.0115601 2.4806)
(36.3922 0.0143046 2.57762)
(35.8501 0.00889455 2.7047)
(35.2192 -0.000998535 2.86427)
(34.5551 -0.00896119 3.07784)
(33.8055 -0.0212417 3.326)
(32.8793 -0.0222143 3.63051)
(31.7936 -0.00614374 3.99856)
(30.6732 0.0117975 4.5573)
(29.4469 0.0141856 5.17279)
(28.0788 0.0175654 5.60969)
(26.7162 0.0389008 5.5083)
(25.4591 0.090861 4.79247)
(24.2969 0.205163 3.47469)
(23.4579 0.702498 1.35628)
(24.2649 2.50888 -1.2581)
(25.3812 3.87335 -3.19972)
(26.1856 3.37503 -2.97661)
(25.3925 2.96379 -2.26491)
(24.1311 2.69543 -1.35004)
(23.3473 2.29675 -0.663798)
(20.973 0.933053 -0.00882125)
(20.6007 0.736006 0.4081)
(20.1209 0.748322 0.276089)
(19.9603 0.827144 -0.201048)
(19.6392 0.940692 -0.664537)
(19.0156 0.972382 -1.00531)
(18.2707 1.27085 -1.25599)
(17.3019 1.48005 -1.16488)
(16.1995 1.50981 -0.701678)
(14.5569 1.47312 -0.316728)
(13.6329 1.37209 -0.215124)
(11.5017 1.82326 -1.34773)
(16.7166 1.65598 1.62322)
(8.49559 1.29526 -2.54303)
(39.9995 0.000322765 0.056357)
(39.9916 0.00075821 0.167759)
(39.976 0.00171067 0.281034)
(39.9486 0.0019892 0.395963)
(39.901 0.00170626 0.513403)
(39.8352 0.00144973 0.634263)
(39.7553 0.00149651 0.759154)
(39.6617 0.0018649 0.888545)
(39.5519 0.00245841 1.02287)
(39.4227 0.00313364 1.16258)
(39.2719 0.00374828 1.30817)
(39.0987 0.00421166 1.46028)
(38.9034 0.00448028 1.61968)
(38.6871 0.00460257 1.78749)
(38.4518 0.00468762 1.96482)
(38.2011 0.00499638 2.15308)
(37.9356 0.00561678 2.34974)
(37.6634 0.00723775 2.55905)
(37.3753 0.0107533 2.74993)
(37.0517 0.013313 2.93367)
(36.6635 0.0124027 3.11104)
(36.1677 0.00607025 3.3355)
(35.564 -7.96435e-05 3.51805)
(34.8635 -0.0130838 3.79472)
(34.1291 -0.0326661 4.23574)
(33.2225 -0.0403673 4.77412)
(32.0031 -0.0099571 5.26885)
(30.62 0.0327276 5.77232)
(29.2917 0.0389361 6.43859)
(27.9128 0.034696 6.9643)
(26.4679 0.0611222 6.9412)
(24.8681 0.131574 6.27018)
(22.6316 0.323472 5.19094)
(20.9188 0.943503 3.91385)
(2.64901 0.593041 0.474056)
(1.8116 0.0175121 1.60247)
(2.04099 -0.473697 2.88996)
(-0.633047 -0.0436771 -3.06257)
(2.87524 -1.39516 0.48239)
(-0.701401 -2.33955 -3.48948)
(7.95779 -1.20875 -1.8334)
(6.62291 -0.212216 -0.441286)
(5.92434 0.332205 0.445919)
(6.31851 0.451524 0.475521)
(7.02664 0.391197 0.17062)
(6.6042 -0.0277731 -0.296679)
(6.13456 -0.413889 -0.304513)
(8.3804 -0.434559 -2.12546)
(9.7103 -0.515091 -2.85591)
(11.3942 -0.694565 -3.66366)
(12.9468 -0.770999 -4.18298)
(14.554 -0.532647 -4.8344)
(19.6379 0.0601242 -6.56352)
(19.8979 -0.582636 -9.18953)
(40 0.000322758 0.0563446)
(39.9923 0.000758243 0.167735)
(39.9763 0.00171068 0.280975)
(39.9475 0.00198942 0.395906)
(39.8994 0.00170577 0.513379)
(39.8339 0.00144803 0.63426)
(39.7546 0.00149457 0.759137)
(39.6616 0.00186302 0.888473)
(39.552 0.00245683 1.02271)
(39.4228 0.00313191 1.16231)
(39.2718 0.00374834 1.30779)
(39.0983 0.00421381 1.45981)
(38.9026 0.00448355 1.61921)
(38.6861 0.00460667 1.78708)
(38.4511 0.00469697 1.96466)
(38.2005 0.00500571 2.15266)
(37.9372 0.00564453 2.3497)
(37.6656 0.00729406 2.55446)
(37.3838 0.0105105 2.75485)
(37.0696 0.0131957 2.95294)
(36.6763 0.0132165 3.15347)
(36.2315 0.00681297 3.36875)
(35.6091 -0.00238612 3.59158)
(34.8738 -0.0123067 3.84397)
(34.0608 -0.0332295 4.18592)
(33.0758 -0.0404376 4.69175)
(31.8583 -0.00765018 5.16909)
(30.6855 0.0285721 5.80446)
(29.4701 0.0355798 6.49876)
(28.1485 0.0304109 6.98643)
(26.7854 0.0578549 6.91977)
(25.4377 0.124663 6.29131)
(24.0136 0.349201 5.26579)
(22.7499 1.49677 4.09762)
(24.6007 4.3359 3.49441)
(2.80241 0.0145829 1.63892)
(7.41624 0.147887 0.437321)
(5.87666 1.0132 0.0797616)
(0.364274 0.869401 0.738951)
(0.857557 0.578299 -0.494402)
(3.48161 0.890873 -0.00735211)
(4.51545 1.37456 0.353452)
(4.85727 1.66035 0.790483)
(5.37499 1.77435 0.998074)
(6.3066 1.83329 0.899683)
(6.38326 1.71252 0.665949)
(5.83749 1.57887 0.820191)
(5.07828 1.57572 1.41031)
(3.52745 1.8101 2.21428)
(2.6657 1.91064 2.03446)
(3.16714 2.05701 1.15807)
(5.71365 2.51261 -0.417871)
(11.4568 3.38549 -2.06625)
(12.4418 1.52542 -5.2402)
(39.9996 0.000314013 0.0634456)
(39.9923 0.00074331 0.18899)
(39.9781 0.00166006 0.316656)
(39.953 0.00193374 0.446327)
(39.9087 0.00166722 0.578962)
(39.8471 0.00142011 0.715566)
(39.7721 0.00145773 0.856875)
(39.684 0.00179823 1.00351)
(39.5803 0.00234996 1.15609)
(39.4579 0.00297592 1.31521)
(39.3145 0.0035457 1.48151)
(39.1495 0.00397726 1.65564)
(38.9631 0.00424888 1.83823)
(38.7565 0.00440815 2.02982)
(38.5315 0.004525 2.23067)
(38.29 0.00480155 2.44053)
(38.0336 0.00527975 2.65766)
(37.7641 0.00621989 2.88089)
(37.4835 0.00702009 3.10621)
(37.1867 0.00737091 3.33524)
(36.8567 0.00587625 3.58005)
(36.4815 0.00447806 3.87957)
(36.0441 0.00849868 4.20461)
(35.4189 -0.00696606 4.57532)
(34.6542 -0.0331506 5.14011)
(33.8816 -0.0478293 5.88183)
(32.8958 -0.0158725 6.5324)
(31.5544 0.0477804 7.08508)
(30.0305 0.0744765 7.75829)
(28.4376 0.0578966 8.33275)
(27.0301 0.0588894 8.26586)
(25.6737 0.0869421 7.72182)
(24.0783 0.183144 7.39178)
(22.9679 0.743487 8.57993)
(19.7545 1.37721 12.2553)
(0.927679 0.0087458 1.65959)
(1.75196 -0.137609 -0.556721)
(0.739787 -0.820807 -1.78541)
(-1.01267 -1.28993 0.431515)
(3.96592 -3.19746 -2.78988)
(0.81457 -3.21189 -3.97715)
(3.07916 -3.09057 -3.13857)
(4.46855 -2.45578 -2.02388)
(6.21086 -1.81888 -1.1872)
(8.29656 -1.58963 -1.67084)
(10.2659 -1.80305 -2.74963)
(12.4798 -1.72222 -3.84759)
(15.2122 -1.40373 -5.02742)
(17.9015 -1.08273 -6.06066)
(20.1593 -0.920698 -6.83172)
(21.5809 -0.919258 -7.30385)
(22.217 -0.773771 -7.60954)
(25.0092 -0.412105 -8.28169)
(23.2032 -0.149125 -9.6884)
(40.0001 0.000314008 0.0634332)
(39.9929 0.000743333 0.188964)
(39.9784 0.0016601 0.316594)
(39.952 0.00193381 0.446264)
(39.9072 0.00166734 0.578928)
(39.8458 0.00142021 0.71555)
(39.7714 0.00145814 0.856842)
(39.6838 0.00179772 1.00343)
(39.5804 0.00234792 1.15593)
(39.4579 0.00297326 1.31496)
(39.3144 0.00354455 1.48117)
(39.149 0.00397861 1.65525)
(38.9623 0.00425097 1.83784)
(38.7556 0.00441132 2.02948)
(38.5307 0.00452739 2.23039)
(38.2895 0.00480788 2.44013)
(38.0338 0.00528591 2.65699)
(37.7649 0.00624591 2.87863)
(37.4828 0.00707148 3.10214)
(37.1834 0.00738317 3.3299)
(36.8524 0.0059474 3.58207)
(36.4849 0.00439351 3.87588)
(36.0618 0.00916696 4.27795)
(35.5004 -0.00356442 4.60782)
(34.637 -0.0374965 5.10537)
(33.7721 -0.0505244 5.74421)
(32.5578 -0.0227378 6.35504)
(31.2637 0.0334681 7.07066)
(30.1021 0.0588272 7.78067)
(28.8508 0.0408824 8.29792)
(27.4312 0.0505082 8.29313)
(26.0616 0.083646 7.71066)
(24.7687 0.193631 7.11942)
(23.1871 0.979023 7.5162)
(25.1281 3.3827 10.6572)
(21.2556 2.88361 10.521)
(18.2204 1.88023 7.6311)
(14.4025 1.3957 4.60635)
(9.54114 1.02348 2.39045)
(5.98445 -0.333453 -0.552956)
(-7.81758 1.47547 1.72551)
(-3.88153 2.53997 2.28047)
(-4.14715 2.22732 1.12688)
(-1.9014 1.63525 -1.75207)
(0.335682 1.86012 -1.21445)
(0.200922 0.60001 -0.694587)
(3.06374 0.524941 -1.28499)
(6.68243 1.03943 -2.39574)
(9.73238 1.49008 -3.24055)
(12.2386 1.5406 -3.75331)
(14.1938 1.21039 -4.18178)
(16.2055 0.94352 -4.69643)
(20.3743 0.969726 -5.39577)
(20.5508 0.57731 -6.03057)
(39.9997 0.000310946 0.0700369)
(39.9931 0.000736496 0.208796)
(39.9806 0.00165134 0.349856)
(39.9582 0.00192565 0.493275)
(39.9178 0.00166577 0.640165)
(39.861 0.00142004 0.791664)
(39.7917 0.00144646 0.948635)
(39.7102 0.00176316 1.11185)
(39.6137 0.00228217 1.28205)
(39.4992 0.00287239 1.45997)
(39.3646 0.00340985 1.64633)
(39.2088 0.00381952 1.84173)
(39.032 0.00408464 2.04654)
(38.8351 0.00424627 2.2607)
(38.6192 0.00438158 2.48359)
(38.3857 0.00458894 2.71404)
(38.1359 0.00483064 2.9501)
(37.8716 0.00521855 3.19009)
(37.5953 0.00558191 3.43271)
(37.3105 0.00598891 3.68261)
(37.0168 0.00611022 3.95245)
(36.7158 0.00710703 4.28088)
(36.4048 0.00846437 4.69446)
(36.0447 0.0200388 5.24909)
(35.3925 0.00784705 5.9761)
(34.7697 -0.0110568 6.76139)
(34.0658 -0.0146561 7.47823)
(32.9761 0.0143929 8.36121)
(31.6673 0.0652283 9.24011)
(30.1545 0.105533 9.87186)
(28.4855 0.111371 9.63684)
(26.5604 0.122574 8.91672)
(24.9453 0.136875 8.54771)
(23.2489 0.299909 9.3069)
(25.1607 0.977052 14.3745)
(20.7726 0.512106 12.675)
(16.4503 -0.494557 7.95819)
(12.824 -1.46309 3.6385)
(9.90996 -1.91322 0.370744)
(9.79811 -2.50879 -1.69982)
(11.5404 -3.22449 -2.68153)
(13.3744 -3.35207 -3.40297)
(14.8661 -3.00876 -3.76064)
(16.3979 -2.36792 -4.19293)
(17.8784 -1.81616 -4.89803)
(19.4352 -1.57874 -5.7509)
(21.0753 -1.34883 -6.51491)
(22.7388 -1.05947 -7.24422)
(24.2879 -0.779772 -7.85235)
(25.3969 -0.626767 -8.32504)
(25.906 -0.553222 -8.61594)
(25.5268 -0.434517 -8.67363)
(27.0159 -0.0759808 -8.88074)
(24.1283 0.418033 -9.2317)
(40.0002 0.000310941 0.0700243)
(39.9937 0.000736519 0.208768)
(39.9808 0.00165138 0.349786)
(39.9572 0.00192572 0.4932)
(39.9163 0.00166589 0.640117)
(39.8598 0.00142017 0.791631)
(39.791 0.00144695 0.948586)
(39.7099 0.00176278 1.11175)
(39.6137 0.00228018 1.28188)
(39.4992 0.00286995 1.45972)
(39.3644 0.00340786 1.64601)
(39.2083 0.00381575 1.84134)
(39.0313 0.0040816 2.04609)
(38.8342 0.00424681 2.26021)
(38.6184 0.00437886 2.48306)
(38.385 0.00458381 2.71332)
(38.1353 0.00483067 2.94901)
(37.8712 0.00522186 3.18818)
(37.5949 0.00560586 3.43021)
(37.3093 0.00599297 3.67926)
(37.0155 0.00614081 3.95224)
(36.716 0.00702936 4.27456)
(36.4052 0.00879591 4.70419)
(36.0912 0.0196402 5.21908)
(35.5293 -0.00370604 5.89583)
(34.8431 -0.0164437 6.67139)
(33.8168 -0.0224625 7.54841)
(32.5127 -0.00126769 8.33889)
(31.2537 0.0426495 9.01801)
(30.0574 0.0735677 9.59292)
(28.8075 0.0952869 9.80001)
(27.34 0.0909467 9.1998)
(25.6377 0.1317 8.48862)
(23.9709 0.183015 8.94346)
(24.2753 1.23506 11.5989)
(26.0732 1.76193 12.6516)
(26.109 1.66547 11.2077)
(24.3942 1.32858 8.68422)
(21.4566 1.07598 6.18501)
(19.0206 0.48836 4.02157)
(14.8426 -0.184438 2.14079)
(10.888 -0.259612 0.86275)
(7.80654 0.378799 0.626848)
(7.42219 1.38553 0.042057)
(8.09629 1.80315 -0.688421)
(10.295 1.52191 -1.49431)
(13.6436 1.20706 -2.58031)
(17.0648 1.03261 -3.71914)
(19.8886 0.925883 -4.6469)
(21.928 0.714746 -5.40725)
(23.1967 0.424267 -5.80581)
(24.0883 0.205192 -6.01594)
(26.1228 0.283508 -6.04011)
(25.6338 0.470383 -7.03428)
(39.9997 0.000302034 0.076045)
(39.994 0.000719351 0.22694)
(39.9835 0.001594 0.380255)
(39.9643 0.00185913 0.536293)
(39.9284 0.00161276 0.696337)
(39.8772 0.00137511 0.861664)
(39.8145 0.00139282 1.03328)
(39.7404 0.00168398 1.2121)
(39.6523 0.00216634 1.39905)
(39.547 0.00271613 1.59501)
(39.4223 0.00321186 1.80075)
(39.2768 0.00357676 2.01683)
(39.1103 0.00379248 2.2434)
(38.9231 0.00389471 2.47991)
(38.7156 0.00395805 2.72505)
(38.4885 0.00402505 2.97662)
(38.2432 0.00411937 3.23172)
(37.9824 0.00422852 3.48743)
(37.7123 0.0043723 3.74198)
(37.4421 0.00449382 3.99789)
(37.1904 0.00492658 4.26945)
(36.9611 0.00372779 4.58743)
(36.793 0.00197339 5.01082)
(36.6477 0.0172643 5.59877)
(36.342 0.0468148 6.4845)
(35.8631 0.0516143 7.41708)
(35.0318 0.0230349 8.37499)
(34.1136 -0.0076516 9.46557)
(33.1212 -0.00894634 10.4355)
(32.068 0.0334549 11.2335)
(30.8366 0.070059 11.5989)
(29.1433 0.0932645 11.3398)
(26.9968 0.144208 10.39)
(24.7592 0.07774 9.84607)
(24.7063 0.31613 11.4641)
(25.8402 0.36372 12.1838)
(25.3341 -0.0989989 10.5218)
(23.662 -0.750697 7.53003)
(21.9521 -1.29638 4.42986)
(21.0811 -1.70501 1.80972)