/*--------------------------------*- C++ -*----------------------------------*\
| =========                 |                                                 |
| \\      /  F ield         | OpenFOAM: The Open Source CFD Toolbox           |
|  \\    /   O peration     | Version:  4.1                                   |
|   \\  /    A nd           | Web:      www.OpenFOAM.org                      |
|    \\/     M anipulation  |                                                 |
\*---------------------------------------------------------------------------*/
FoamFile
{
    version     2.0;
    format      ascii;
    class       volScalarField;
    location    "67";
    object      p;
}
// * * * * * * * * * * * * * * * * * * * * * * * * * * * * * * * * * * * * * //

dimensions      [0 2 -2 0 0 0 0];

internalField   nonuniform List<scalar> 
4432
(
-3.86227e+10
-3.91064e+10
-3.97016e+10
-3.95181e+10
-3.95534e+10
-3.97627e+10
-3.98642e+10
-3.99442e+10
-4.00136e+10
-4.00834e+10
-4.01512e+10
-4.02101e+10
-4.02515e+10
-4.02708e+10
-4.02714e+10
-4.02541e+10
-4.02132e+10
-4.01465e+10
-4.00539e+10
-3.9936e+10
-3.97934e+10
-3.96294e+10
-3.94479e+10
-3.9255e+10
-3.90566e+10
-3.886e+10
-3.86721e+10
-3.85001e+10
-3.835e+10
-3.82265e+10
-3.81316e+10
-3.80646e+10
-3.80209e+10
-3.79916e+10
-3.79649e+10
-3.79287e+10
-3.78745e+10
-3.78019e+10
-3.772e+10
-3.76474e+10
-3.76068e+10
-3.76161e+10
-3.76793e+10
-3.77883e+10
-3.79458e+10
-3.81625e+10
-3.83328e+10
-3.80104e+10
-3.66017e+10
-3.48836e+10
-3.70927e+10
-4.77736e+10
-5.73798e+10
-2.82236e+10
-3.8925e+10
-3.9085e+10
-3.94417e+10
-3.96105e+10
-3.95909e+10
-3.97443e+10
-3.98636e+10
-3.99386e+10
-4.00049e+10
-4.00785e+10
-4.01512e+10
-4.02119e+10
-4.02525e+10
-4.02718e+10
-4.02731e+10
-4.02562e+10
-4.02153e+10
-4.01484e+10
-4.00561e+10
-3.99384e+10
-3.97958e+10
-3.96314e+10
-3.94491e+10
-3.92547e+10
-3.90543e+10
-3.88551e+10
-3.86638e+10
-3.84878e+10
-3.8333e+10
-3.82043e+10
-3.81038e+10
-3.80309e+10
-3.79812e+10
-3.79463e+10
-3.79154e+10
-3.78769e+10
-3.78224e+10
-3.77515e+10
-3.76727e+10
-3.76045e+10
-3.75696e+10
-3.75853e+10
-3.76544e+10
-3.77674e+10
-3.79247e+10
-3.81318e+10
-3.82666e+10
-3.78299e+10
-3.60918e+10
-3.36152e+10
-3.47562e+10
-4.5944e+10
-5.9294e+10
-3.46678e+10
-3.92153e+10
-3.92457e+10
-3.94409e+10
-3.97178e+10
-3.97206e+10
-3.97987e+10
-3.99363e+10
-4.00175e+10
-4.00857e+10
-4.01612e+10
-4.02346e+10
-4.0304e+10
-4.03574e+10
-4.03844e+10
-4.03872e+10
-4.03714e+10
-4.03334e+10
-4.02672e+10
-4.01723e+10
-4.00482e+10
-3.98957e+10
-3.97176e+10
-3.95187e+10
-3.9306e+10
-3.90868e+10
-3.88697e+10
-3.86622e+10
-3.84723e+10
-3.83058e+10
-3.8168e+10
-3.80608e+10
-3.7984e+10
-3.79339e+10
-3.79024e+10
-3.78784e+10
-3.78507e+10
-3.78113e+10
-3.77594e+10
-3.77024e+10
-3.76568e+10
-3.7643e+10
-3.76749e+10
-3.77501e+10
-3.7855e+10
-3.79894e+10
-3.8159e+10
-3.82153e+10
-3.75772e+10
-3.54933e+10
-3.29212e+10
-3.50349e+10
-4.75576e+10
-6.07768e+10
-3.8153e+10
-3.92026e+10
-3.9308e+10
-3.95236e+10
-3.96758e+10
-3.97115e+10
-3.98001e+10
-3.9936e+10
-4.00103e+10
-4.00801e+10
-4.01558e+10
-4.02324e+10
-4.03033e+10
-4.03557e+10
-4.03811e+10
-4.0384e+10
-4.03704e+10
-4.03333e+10
-4.02667e+10
-4.01724e+10
-4.00488e+10
-3.98966e+10
-3.97187e+10
-3.95196e+10
-3.93063e+10
-3.90863e+10
-3.8868e+10
-3.86589e+10
-3.84669e+10
-3.8298e+10
-3.81575e+10
-3.80477e+10
-3.79679e+10
-3.79141e+10
-3.78785e+10
-3.78507e+10
-3.78198e+10
-3.77776e+10
-3.77233e+10
-3.76643e+10
-3.76167e+10
-3.76003e+10
-3.76279e+10
-3.76969e+10
-3.77931e+10
-3.79153e+10
-3.80659e+10
-3.80854e+10
-3.73532e+10
-3.50443e+10
-3.22745e+10
-3.5263e+10
-5.04336e+10
-6.17621e+10
-3.00761e+10
-3.95939e+10
-3.957e+10
-3.94718e+10
-3.97243e+10
-3.97923e+10
-3.98398e+10
-3.99245e+10
-4.00041e+10
-4.00799e+10
-4.01564e+10
-4.02313e+10
-4.03056e+10
-4.0365e+10
-4.0398e+10
-4.04079e+10
-4.03995e+10
-4.03691e+10
-4.03107e+10
-4.02228e+10
-4.01027e+10
-3.99505e+10
-3.97681e+10
-3.95608e+10
-3.93363e+10
-3.91035e+10
-3.88721e+10
-3.86507e+10
-3.84471e+10
-3.82681e+10
-3.81191e+10
-3.80023e+10
-3.79158e+10
-3.78543e+10
-3.78107e+10
-3.77758e+10
-3.77397e+10
-3.76959e+10
-3.76444e+10
-3.75942e+10
-3.75616e+10
-3.75644e+10
-3.7612e+10
-3.77002e+10
-3.78201e+10
-3.79878e+10
-3.82324e+10
-3.84094e+10
-3.78738e+10
-3.57609e+10
-3.31089e+10
-3.54599e+10
-4.84004e+10
-5.99248e+10
-3.01101e+10
-3.94745e+10
-3.95811e+10
-3.96311e+10
-3.96541e+10
-3.97484e+10
-3.98412e+10
-3.99296e+10
-4.00014e+10
-4.00818e+10
-4.01607e+10
-4.0239e+10
-4.03152e+10
-4.0377e+10
-4.04132e+10
-4.04267e+10
-4.04233e+10
-4.03959e+10
-4.03395e+10
-4.02533e+10
-4.01348e+10
-3.99833e+10
-3.98011e+10
-3.95934e+10
-3.93678e+10
-3.91337e+10
-3.89006e+10
-3.86772e+10
-3.84714e+10
-3.82896e+10
-3.81369e+10
-3.80153e+10
-3.79235e+10
-3.78564e+10
-3.78065e+10
-3.7764e+10
-3.77191e+10
-3.76655e+10
-3.76036e+10
-3.7543e+10
-3.75002e+10
-3.74935e+10
-3.75331e+10
-3.7615e+10
-3.77283e+10
-3.7883e+10
-3.80946e+10
-3.81865e+10
-3.7439e+10
-3.4868e+10
-3.15074e+10
-3.34102e+10
-4.71824e+10
-6.11232e+10
-3.48324e+10
-3.95626e+10
-3.96487e+10
-3.96595e+10
-3.96952e+10
-3.9811e+10
-3.99064e+10
-3.99879e+10
-4.00643e+10
-4.01477e+10
-4.02348e+10
-4.03227e+10
-4.04104e+10
-4.04841e+10
-4.05341e+10
-4.05607e+10
-4.05645e+10
-4.05401e+10
-4.04835e+10
-4.03923e+10
-4.0264e+10
-4.00973e+10
-3.98945e+10
-3.96623e+10
-3.94109e+10
-3.91528e+10
-3.89e+10
-3.8663e+10
-3.84502e+10
-3.82685e+10
-3.8123e+10
-3.80146e+10
-3.79384e+10
-3.78861e+10
-3.78515e+10
-3.78264e+10
-3.77977e+10
-3.77592e+10
-3.77114e+10
-3.76612e+10
-3.76221e+10
-3.76082e+10
-3.76255e+10
-3.76668e+10
-3.77234e+10
-3.78174e+10
-3.79914e+10
-3.81197e+10
-3.75711e+10
-3.54301e+10
-3.25183e+10
-3.42932e+10
-4.75451e+10
-6.32959e+10
-3.97287e+10
-3.96242e+10
-3.968e+10
-3.96676e+10
-3.96558e+10
-3.97833e+10
-3.99125e+10
-3.99927e+10
-4.00659e+10
-4.0153e+10
-4.02415e+10
-4.03319e+10
-4.04207e+10
-4.04964e+10
-4.05501e+10
-4.05818e+10
-4.05906e+10
-4.05697e+10
-4.05155e+10
-4.04253e+10
-4.02967e+10
-4.01288e+10
-3.99239e+10
-3.96887e+10
-3.94337e+10
-3.91716e+10
-3.89145e+10
-3.86731e+10
-3.84556e+10
-3.82683e+10
-3.81152e+10
-3.79971e+10
-3.79105e+10
-3.78485e+10
-3.78015e+10
-3.77592e+10
-3.77126e+10
-3.76556e+10
-3.75884e+10
-3.75202e+10
-3.7467e+10
-3.74457e+10
-3.74656e+10
-3.75232e+10
-3.76122e+10
-3.77538e+10
-3.79827e+10
-3.81459e+10
-3.75412e+10
-3.51955e+10
-3.22505e+10
-3.52187e+10
-5.07337e+10
-6.29995e+10
-3.08469e+10
-3.96211e+10
-3.96551e+10
-3.96957e+10
-3.96932e+10
-3.97774e+10
-3.98747e+10
-3.99641e+10
-4.00475e+10
-4.01388e+10
-4.02399e+10
-4.03431e+10
-4.04397e+10
-4.05234e+10
-4.05874e+10
-4.06307e+10
-4.06488e+10
-4.06353e+10
-4.05861e+10
-4.04972e+10
-4.03652e+10
-4.01867e+10
-3.99627e+10
-3.97005e+10
-3.94134e+10
-3.91178e+10
-3.88295e+10
-3.85615e+10
-3.83236e+10
-3.81222e+10
-3.79607e+10
-3.78383e+10
-3.77488e+10
-3.76832e+10
-3.76331e+10
-3.75889e+10
-3.75398e+10
-3.74797e+10
-3.74094e+10
-3.73377e+10
-3.72794e+10
-3.72501e+10
-3.72573e+10
-3.72957e+10
-3.73603e+10
-3.74755e+10
-3.76855e+10
-3.7874e+10
-3.74272e+10
-3.53809e+10
-3.22608e+10
-3.30018e+10
-4.49595e+10
-6.22626e+10
-4.17973e+10
-3.97052e+10
-3.97214e+10
-3.96867e+10
-3.96761e+10
-3.97761e+10
-3.98886e+10
-3.99816e+10
-4.00681e+10
-4.01585e+10
-4.02563e+10
-4.03582e+10
-4.04551e+10
-4.05377e+10
-4.0601e+10
-4.06436e+10
-4.0661e+10
-4.06475e+10
-4.0599e+10
-4.05122e+10
-4.03827e+10
-4.02072e+10
-3.99861e+10
-3.97264e+10
-3.94408e+10
-3.91455e+10
-3.88563e+10
-3.85864e+10
-3.83451e+10
-3.81386e+10
-3.79699e+10
-3.78383e+10
-3.77391e+10
-3.76639e+10
-3.76027e+10
-3.75448e+10
-3.74809e+10
-3.74055e+10
-3.73196e+10
-3.72331e+10
-3.71622e+10
-3.71249e+10
-3.71305e+10
-3.71752e+10
-3.72555e+10
-3.73969e+10
-3.76423e+10
-3.78622e+10
-3.74028e+10
-3.5307e+10
-3.25012e+10
-3.48401e+10
-4.89227e+10
-6.25615e+10
-3.34299e+10
-3.97229e+10
-3.97292e+10
-3.97398e+10
-3.97588e+10
-3.98256e+10
-3.99154e+10
-4.00078e+10
-4.00974e+10
-4.0194e+10
-4.03083e+10
-4.0433e+10
-4.05495e+10
-4.06527e+10
-4.07396e+10
-4.08056e+10
-4.08426e+10
-4.08434e+10
-4.08024e+10
-4.07156e+10
-4.05783e+10
-4.03846e+10
-4.01323e+10
-3.98287e+10
-3.94923e+10
-3.91468e+10
-3.88147e+10
-3.8513e+10
-3.82523e+10
-3.80377e+10
-3.78693e+10
-3.77429e+10
-3.7651e+10
-3.75837e+10
-3.75299e+10
-3.74772e+10
-3.74159e+10
-3.73403e+10
-3.72514e+10
-3.71589e+10
-3.70798e+10
-3.70332e+10
-3.70315e+10
-3.70761e+10
-3.7168e+10
-3.73358e+10
-3.76276e+10
-3.79409e+10
-3.76874e+10
-3.59258e+10
-3.32691e+10
-3.48787e+10
-4.72509e+10
-5.98516e+10
-3.14802e+10
-3.97424e+10
-3.97498e+10
-3.97457e+10
-3.97572e+10
-3.98308e+10
-3.99155e+10
-4.00038e+10
-4.00979e+10
-4.01976e+10
-4.03091e+10
-4.04279e+10
-4.05426e+10
-4.06457e+10
-4.07334e+10
-4.08011e+10
-4.08404e+10
-4.08435e+10
-4.08047e+10
-4.072e+10
-4.05848e+10
-4.03935e+10
-4.01436e+10
-3.98423e+10
-3.95079e+10
-3.91639e+10
-3.88322e+10
-3.853e+10
-3.82681e+10
-3.80515e+10
-3.78805e+10
-3.77518e+10
-3.76581e+10
-3.75897e+10
-3.75354e+10
-3.74838e+10
-3.74252e+10
-3.73543e+10
-3.72725e+10
-3.71896e+10
-3.71223e+10
-3.70887e+10
-3.71001e+10
-3.71552e+10
-3.72512e+10
-3.74122e+10
-3.7679e+10
-3.79321e+10
-3.75501e+10
-3.55607e+10
-3.25975e+10
-3.4007e+10
-4.66929e+10
-5.99195e+10
-3.15517e+10
-3.97079e+10
-3.97117e+10
-3.97117e+10
-3.97478e+10
-3.98132e+10
-3.9902e+10
-3.99965e+10
-4.00906e+10
-4.01951e+10
-4.032e+10
-4.04543e+10
-4.05853e+10
-4.0708e+10
-4.08173e+10
-4.09055e+10
-4.0963e+10
-4.09803e+10
-4.09504e+10
-4.087e+10
-4.07335e+10
-4.05308e+10
-4.02517e+10
-3.99e+10
-3.95005e+10
-3.9088e+10
-3.86944e+10
-3.8342e+10
-3.80433e+10
-3.78018e+10
-3.76145e+10
-3.74743e+10
-3.73718e+10
-3.72965e+10
-3.7236e+10
-3.71774e+10
-3.71101e+10
-3.70283e+10
-3.69332e+10
-3.68336e+10
-3.67453e+10
-3.66867e+10
-3.667e+10
-3.66969e+10
-3.67678e+10
-3.69083e+10
-3.71605e+10
-3.74144e+10
-3.70637e+10
-3.51008e+10
-3.20119e+10
-3.30474e+10
-4.54372e+10
-5.94594e+10
-3.18124e+10
-3.96937e+10
-3.9694e+10
-3.97224e+10
-3.97652e+10
-3.98283e+10
-3.99051e+10
-3.99963e+10
-4.00977e+10
-4.0211e+10
-4.03382e+10
-4.04734e+10
-4.06081e+10
-4.07353e+10
-4.0849e+10
-4.09412e+10
-4.10017e+10
-4.10207e+10
-4.09919e+10
-4.09122e+10
-4.07764e+10
-4.05729e+10
-4.02913e+10
-3.99363e+10
-3.95333e+10
-3.91185e+10
-3.87238e+10
-3.83718e+10
-3.80744e+10
-3.78348e+10
-3.76501e+10
-3.75129e+10
-3.74134e+10
-3.73406e+10
-3.7282e+10
-3.72255e+10
-3.71608e+10
-3.7082e+10
-3.69903e+10
-3.68949e+10
-3.68116e+10
-3.67581e+10
-3.67455e+10
-3.67735e+10
-3.68398e+10
-3.69652e+10
-3.71841e+10
-3.73727e+10
-3.69055e+10
-3.47211e+10
-3.10604e+10
-3.07617e+10
-4.23196e+10
-6.00898e+10
-3.79559e+10
-3.97341e+10
-3.97215e+10
-3.97244e+10
-3.97705e+10
-3.98433e+10
-3.99274e+10
-4.00164e+10
-4.01132e+10
-4.02321e+10
-4.03753e+10
-4.05276e+10
-4.06819e+10
-4.08341e+10
-4.09772e+10
-4.11014e+10
-4.11946e+10
-4.12435e+10
-4.12389e+10
-4.11766e+10
-4.10526e+10
-4.085e+10
-4.05437e+10
-4.01287e+10
-3.96408e+10
-3.91398e+10
-3.86748e+10
-3.82741e+10
-3.79489e+10
-3.76981e+10
-3.75134e+10
-3.73834e+10
-3.72955e+10
-3.72369e+10
-3.7194e+10
-3.71541e+10
-3.71066e+10
-3.70456e+10
-3.69716e+10
-3.68929e+10
-3.68243e+10
-3.67823e+10
-3.67771e+10
-3.68085e+10
-3.68752e+10
-3.69992e+10
-3.72164e+10
-3.74087e+10
-3.69525e+10
-3.47623e+10
-3.10867e+10
-3.09037e+10
-4.23461e+10
-5.88107e+10
-3.40748e+10
-3.97045e+10
-3.96818e+10
-3.97097e+10
-3.97713e+10
-3.98367e+10
-3.99077e+10
-3.99981e+10
-4.01032e+10
-4.02272e+10
-4.03706e+10
-4.0525e+10
-4.06838e+10
-4.0841e+10
-4.09891e+10
-4.1118e+10
-4.12153e+10
-4.12678e+10
-4.12663e+10
-4.12079e+10
-4.10877e+10
-4.08885e+10
-4.05851e+10
-4.01726e+10
-3.96874e+10
-3.91892e+10
-3.87269e+10
-3.8329e+10
-3.80062e+10
-3.77574e+10
-3.75745e+10
-3.74459e+10
-3.73586e+10
-3.72995e+10
-3.72551e+10
-3.72125e+10
-3.71612e+10
-3.70947e+10
-3.70126e+10
-3.69233e+10
-3.68417e+10
-3.67852e+10
-3.67658e+10
-3.67861e+10
-3.68491e+10
-3.69845e+10
-3.72394e+10
-3.75121e+10
-3.7194e+10
-3.51847e+10
-3.16331e+10
-3.13889e+10
-4.27671e+10
-5.94092e+10
-3.53382e+10
-3.96361e+10
-3.96202e+10
-3.96278e+10
-3.96734e+10
-3.97526e+10
-3.98385e+10
-3.99322e+10
-4.00475e+10
-4.0194e+10
-4.03669e+10
-4.05574e+10
-4.076e+10
-4.09681e+10
-4.1172e+10
-4.13586e+10
-4.1511e+10
-4.16096e+10
-4.1639e+10
-4.15944e+10
-4.14774e+10
-4.12666e+10
-4.091e+10
-4.03753e+10
-3.97185e+10
-3.90553e+10
-3.84704e+10
-3.79986e+10
-3.7645e+10
-3.73969e+10
-3.72344e+10
-3.71369e+10
-3.70858e+10
-3.7064e+10
-3.70558e+10
-3.70474e+10
-3.70286e+10
-3.69939e+10
-3.69448e+10
-3.68907e+10
-3.68475e+10
-3.68334e+10
-3.68612e+10
-3.69347e+10
-3.70596e+10
-3.72704e+10
-3.76229e+10
-3.80252e+10
-3.78771e+10
-3.6117e+10
-3.30624e+10
-3.37922e+10
-4.55946e+10
-5.9213e+10
-3.06206e+10
-3.96298e+10
-3.96067e+10
-3.96236e+10
-3.96789e+10
-3.97484e+10
-3.98285e+10
-3.99319e+10
-4.0057e+10
-4.02065e+10
-4.03816e+10
-4.05774e+10
-4.07873e+10
-4.10035e+10
-4.12162e+10
-4.14122e+10
-4.15741e+10
-4.16816e+10
-4.1717e+10
-4.16745e+10
-4.15543e+10
-4.13366e+10
-4.09694e+10
-4.04222e+10
-3.97549e+10
-3.90858e+10
-3.85017e+10
-3.80354e+10
-3.76904e+10
-3.74525e+10
-3.73014e+10
-3.72161e+10
-3.71775e+10
-3.71679e+10
-3.71711e+10
-3.71731e+10
-3.71622e+10
-3.71318e+10
-3.70823e+10
-3.70215e+10
-3.69637e+10
-3.69259e+10
-3.69204e+10
-3.69525e+10
-3.70316e+10
-3.72003e+10
-3.75281e+10
-3.79444e+10
-3.78723e+10
-3.62536e+10
-3.34097e+10
-3.46162e+10
-4.72052e+10
-6.03626e+10
-3.23617e+10
-3.96267e+10
-3.96312e+10
-3.96417e+10
-3.96751e+10
-3.97446e+10
-3.98287e+10
-3.99304e+10
-4.00642e+10
-4.02325e+10
-4.04314e+10
-4.06602e+10
-4.09132e+10
-4.11813e+10
-4.14519e+10
-4.1708e+10
-4.19272e+10
-4.20837e+10
-4.21537e+10
-4.21317e+10
-4.20297e+10
-4.1837e+10
-4.14621e+10
-4.08002e+10
-3.99148e+10
-3.90272e+10
-3.82973e+10
-3.77602e+10
-3.74038e+10
-3.71899e+10
-3.70796e+10
-3.70398e+10
-3.70445e+10
-3.70728e+10
-3.71072e+10
-3.71329e+10
-3.71386e+10
-3.71177e+10
-3.70707e+10
-3.70054e+10
-3.69361e+10
-3.68788e+10
-3.68448e+10
-3.68384e+10
-3.687e+10
-3.69858e+10
-3.72588e+10
-3.7614e+10
-3.74574e+10
-3.5731e+10
-3.28182e+10
-3.40318e+10
-4.69075e+10
-6.17953e+10
-3.45967e+10
-3.96312e+10
-3.9635e+10
-3.96427e+10
-3.96789e+10
-3.9746e+10
-3.98382e+10
-3.995e+10
-4.00905e+10
-4.02635e+10
-4.04697e+10
-4.07064e+10
-4.09671e+10
-4.12424e+10
-4.1519e+10
-4.17791e+10
-4.2e+10
-4.21553e+10
-4.22224e+10
-4.21953e+10
-4.20868e+10
-4.18844e+10
-4.14955e+10
-4.08151e+10
-3.99052e+10
-3.89937e+10
-3.82475e+10
-3.77036e+10
-3.73483e+10
-3.71407e+10
-3.70389e+10
-3.7008e+10
-3.70208e+10
-3.70562e+10
-3.70969e+10
-3.71286e+10
-3.71405e+10
-3.71263e+10
-3.70869e+10
-3.70302e+10
-3.69705e+10
-3.69237e+10
-3.69006e+10
-3.69049e+10
-3.69464e+10
-3.70703e+10
-3.73492e+10
-3.77057e+10
-3.75334e+10
-3.5718e+10
-3.24451e+10
-3.27856e+10
-4.54831e+10
-6.466e+10
-4.3508e+10
-3.94965e+10
-3.95105e+10
-3.95175e+10
-3.95413e+10
-3.95939e+10
-3.96713e+10
-3.97781e+10
-3.99233e+10
-4.01132e+10
-4.03505e+10
-4.06345e+10
-4.09599e+10
-4.13158e+10
-4.16853e+10
-4.20441e+10
-4.23619e+10
-4.26028e+10
-4.27316e+10
-4.27355e+10
-4.26484e+10
-4.2502e+10
-4.21726e+10
-4.13844e+10
-4.01191e+10
-3.88079e+10
-3.78421e+10
-3.72299e+10
-3.68903e+10
-3.67342e+10
-3.66956e+10
-3.67289e+10
-3.68025e+10
-3.68938e+10
-3.69862e+10
-3.70661e+10
-3.71232e+10
-3.71515e+10
-3.71509e+10
-3.7128e+10
-3.70939e+10
-3.70604e+10
-3.70326e+10
-3.70084e+10
-3.69924e+10
-3.70256e+10
-3.71723e+10
-3.73366e+10
-3.68888e+10
-3.4718e+10
-3.1093e+10
-3.13204e+10
-4.44393e+10
-6.45621e+10
-4.34866e+10
-3.95047e+10
-3.95129e+10
-3.95162e+10
-3.95393e+10
-3.95949e+10
-3.96744e+10
-3.97771e+10
-3.99183e+10
-4.01032e+10
-4.03336e+10
-4.06089e+10
-4.09239e+10
-4.12679e+10
-4.16243e+10
-4.19699e+10
-4.22754e+10
-4.25064e+10
-4.26298e+10
-4.26357e+10
-4.25603e+10
-4.24355e+10
-4.21412e+10
-4.14059e+10
-4.01959e+10
-3.89147e+10
-3.79492e+10
-3.73174e+10
-3.69507e+10
-3.6768e+10
-3.67052e+10
-3.67168e+10
-3.67701e+10
-3.68422e+10
-3.69159e+10
-3.69779e+10
-3.70192e+10
-3.70357e+10
-3.70298e+10
-3.70111e+10
-3.69948e+10
-3.69969e+10
-3.70276e+10
-3.70899e+10
-3.71929e+10
-3.73806e+10
-3.77189e+10
-3.81074e+10
-3.78965e+10
-3.59151e+10
-3.22878e+10
-3.20411e+10
-4.42144e+10
-6.43802e+10
-4.4484e+10
-3.94148e+10
-3.94291e+10
-3.94468e+10
-3.94817e+10
-3.95358e+10
-3.96171e+10
-3.9735e+10
-3.98996e+10
-4.01203e+10
-4.04025e+10
-4.07453e+10
-4.11423e+10
-4.15803e+10
-4.2038e+10
-4.24849e+10
-4.28841e+10
-4.31954e+10
-4.3378e+10
-4.34101e+10
-4.33467e+10
-4.33096e+10
-4.31991e+10
-4.24038e+10
-4.04958e+10
-3.83424e+10
-3.70789e+10
-3.64653e+10
-3.61975e+10
-3.61372e+10
-3.61871e+10
-3.62909e+10
-3.64158e+10
-3.65438e+10
-3.66639e+10
-3.67683e+10
-3.68513e+10
-3.69111e+10
-3.69514e+10
-3.69827e+10
-3.70196e+10
-3.70766e+10
-3.71611e+10
-3.72731e+10
-3.74185e+10
-3.76366e+10
-3.79791e+10
-3.83155e+10
-3.79781e+10
-3.58986e+10
-3.25417e+10
-3.31797e+10
-4.57153e+10
-6.28027e+10
-3.95446e+10
-3.94432e+10
-3.94525e+10
-3.94747e+10
-3.95132e+10
-3.95708e+10
-3.965e+10
-3.97629e+10
-3.99207e+10
-4.01323e+10
-4.04022e+10
-4.073e+10
-4.11095e+10
-4.15284e+10
-4.19665e+10
-4.23948e+10
-4.27772e+10
-4.3073e+10
-4.32397e+10
-4.32574e+10
-4.31857e+10
-4.31462e+10
-4.30471e+10
-4.23228e+10
-4.05396e+10
-3.84946e+10
-3.72637e+10
-3.66312e+10
-3.63374e+10
-3.62544e+10
-3.62853e+10
-3.6372e+10
-3.64801e+10
-3.65903e+10
-3.669e+10
-3.67701e+10
-3.68246e+10
-3.68517e+10
-3.68563e+10
-3.68502e+10
-3.68506e+10
-3.68755e+10
-3.69379e+10
-3.70445e+10
-3.72102e+10
-3.7486e+10
-3.79387e+10
-3.84543e+10
-3.83754e+10
-3.66203e+10
-3.36316e+10
-3.4777e+10
-4.77306e+10
-6.16713e+10
-3.21531e+10
-3.93285e+10
-3.932e+10
-3.93336e+10
-3.93552e+10
-3.93849e+10
-3.94321e+10
-3.95122e+10
-3.96418e+10
-3.98358e+10
-4.01045e+10
-4.04515e+10
-4.08751e+10
-4.1371e+10
-4.19264e+10
-4.25097e+10
-4.30754e+10
-4.35747e+10
-4.3952e+10
-4.41579e+10
-4.42444e+10
-4.44442e+10
-4.48083e+10
-4.43199e+10
-4.13573e+10
-3.75907e+10
-3.59282e+10
-3.53553e+10
-3.52549e+10
-3.54099e+10
-3.56367e+10
-3.58618e+10
-3.60593e+10
-3.62235e+10
-3.63535e+10
-3.64488e+10
-3.65087e+10
-3.65354e+10
-3.6536e+10
-3.65239e+10
-3.65173e+10
-3.65352e+10
-3.65914e+10
-3.66931e+10
-3.68558e+10
-3.71277e+10
-3.75628e+10
-3.80185e+10
-3.78297e+10
-3.60604e+10
-3.35481e+10
-3.57449e+10
-4.88504e+10
-6.1026e+10
-3.13483e+10
-3.93467e+10
-3.93463e+10
-3.93671e+10
-3.93966e+10
-3.94322e+10
-3.9483e+10
-3.95649e+10
-3.96933e+10
-3.98834e+10
-4.01451e+10
-4.04816e+10
-4.08909e+10
-4.13672e+10
-4.18968e+10
-4.24505e+10
-4.29852e+10
-4.34525e+10
-4.37952e+10
-4.39511e+10
-4.39683e+10
-4.41002e+10
-4.44441e+10
-4.40903e+10
-4.14598e+10
-3.78865e+10
-3.62038e+10
-3.55492e+10
-3.5399e+10
-3.55163e+10
-3.57166e+10
-3.59252e+10
-3.61126e+10
-3.62702e+10
-3.63948e+10
-3.64841e+10
-3.65364e+10
-3.65526e+10
-3.65387e+10
-3.65072e+10
-3.64762e+10
-3.64649e+10
-3.64881e+10
-3.65553e+10
-3.66852e+10
-3.69309e+10
-3.73516e+10
-3.78074e+10
-3.76233e+10
-3.58102e+10
-3.3021e+10
-3.44259e+10
-4.68494e+10
-6.08528e+10
-3.39636e+10
-3.91948e+10
-3.91849e+10
-3.91879e+10
-3.91861e+10
-3.91864e+10
-3.91985e+10
-3.92451e+10
-3.93543e+10
-3.95558e+10
-3.98725e+10
-4.03182e+10
-4.08988e+10
-4.16179e+10
-4.24661e+10
-4.33865e+10
-4.42986e+10
-4.51374e+10
-4.58416e+10
-4.63232e+10
-4.66038e+10
-4.69929e+10
-4.77442e+10
-4.80139e+10
-4.45613e+10
-3.89134e+10
-3.46203e+10
-3.4212e+10
-3.45852e+10
-3.50657e+10
-3.54756e+10
-3.58019e+10
-3.60567e+10
-3.62541e+10
-3.64016e+10
-3.65028e+10
-3.65606e+10
-3.658e+10
-3.65692e+10
-3.65423e+10
-3.6518e+10
-3.6516e+10
-3.65502e+10
-3.66274e+10
-3.67616e+10
-3.69957e+10
-3.73725e+10
-3.77346e+10
-3.74183e+10
-3.55389e+10
-3.29667e+10
-3.48787e+10
-4.72124e+10
-5.97282e+10
-3.03141e+10
-3.92072e+10
-3.92012e+10
-3.92099e+10
-3.92121e+10
-3.92158e+10
-3.92313e+10
-3.92804e+10
-3.93909e+10
-3.95921e+10
-3.99066e+10
-4.03473e+10
-4.09195e+10
-4.16242e+10
-4.24477e+10
-4.33461e+10
-4.42438e+10
-4.50557e+10
-4.57076e+10
-4.60537e+10
-4.61258e+10
-4.63701e+10
-4.71685e+10
-4.76994e+10
-4.4926e+10
-3.95859e+10
-3.45818e+10
-3.41848e+10
-3.45721e+10
-3.50526e+10
-3.54564e+10
-3.57763e+10
-3.60269e+10
-3.62236e+10
-3.63741e+10
-3.64815e+10
-3.65485e+10
-3.65794e+10
-3.65824e+10
-3.65713e+10
-3.65639e+10
-3.65784e+10
-3.66268e+10
-3.67136e+10
-3.68489e+10
-3.70705e+10
-3.74115e+10
-3.76925e+10
-3.71927e+10
-3.49107e+10
-3.15346e+10
-3.21413e+10
-4.38262e+10
-5.97418e+10
-3.87781e+10
-3.91575e+10
-3.91646e+10
-3.91525e+10
-3.91331e+10
-3.91083e+10
-3.90941e+10
-3.91188e+10
-3.92207e+10
-3.94397e+10
-3.98025e+10
-4.03168e+10
-4.09747e+10
-4.17685e+10
-4.26798e+10
-4.36362e+10
-4.45555e+10
-4.53916e+10
-4.60929e+10
-4.65698e+10
-4.68942e+10
-4.73118e+10
-4.81636e+10
-4.90208e+10
-4.80148e+10
-4.29937e+10
-2.86252e+10
-3.12011e+10
-3.3268e+10
-3.44385e+10
-3.51443e+10
-3.56104e+10
-3.59356e+10
-3.61712e+10
-3.63423e+10
-3.64615e+10
-3.65365e+10
-3.65749e+10
-3.65881e+10
-3.6592e+10
-3.6606e+10
-3.66489e+10
-3.67315e+10
-3.68551e+10
-3.70231e+10
-3.72638e+10
-3.76023e+10
-3.78695e+10
-3.73955e+10
-3.52699e+10
-3.23276e+10
-3.39722e+10
-4.69178e+10
-6.13051e+10
-3.65584e+10
-3.91521e+10
-3.91602e+10
-3.91512e+10
-3.91352e+10
-3.91166e+10
-3.91096e+10
-3.91404e+10
-3.92451e+10
-3.94612e+10
-3.98168e+10
-4.03237e+10
-4.09798e+10
-4.1775e+10
-4.26853e+10
-4.36613e+10
-4.4606e+10
-4.54221e+10
-4.60799e+10
-4.64526e+10
-4.65831e+10
-4.69149e+10
-4.80897e+10
-4.90939e+10
-4.84579e+10
-4.54948e+10
-2.84469e+10
-3.10861e+10
-3.31747e+10
-3.43729e+10
-3.50926e+10
-3.5564e+10
-3.58896e+10
-3.61231e+10
-3.62914e+10
-3.64088e+10
-3.64833e+10
-3.6523e+10
-3.65393e+10
-3.65481e+10
-3.65688e+10
-3.66192e+10
-3.67092e+10
-3.68384e+10
-3.70076e+10
-3.72407e+10
-3.75545e+10
-3.77566e+10
-3.71117e+10
-3.46363e+10
-3.14543e+10
-3.40818e+10
-4.91281e+10
-6.08246e+10
-2.99624e+10
-3.91346e+10
-3.91445e+10
-3.91333e+10
-3.91105e+10
-3.9082e+10
-3.90648e+10
-3.90889e+10
-3.91947e+10
-3.94233e+10
-3.97969e+10
-4.03139e+10
-4.0968e+10
-4.17574e+10
-4.26655e+10
-4.36334e+10
-4.45714e+10
-4.54143e+10
-4.61102e+10
-4.66067e+10
-4.69891e+10
-4.74979e+10
-4.82859e+10
-4.87706e+10
-4.45974e+10
-2.2051e+10
-3.07055e+10
-3.29156e+10
-3.42041e+10
-3.49816e+10
-3.54842e+10
-3.58248e+10
-3.60639e+10
-3.62322e+10
-3.63456e+10
-3.6414e+10
-3.64464e+10
-3.64549e+10
-3.64563e+10
-3.64706e+10
-3.65161e+10
-3.66029e+10
-3.67301e+10
-3.68974e+10
-3.71286e+10
-3.74522e+10
-3.77216e+10
-3.73024e+10
-3.52675e+10
-3.22644e+10
-3.3271e+10
-4.5141e+10
-6.05982e+10
-3.69718e+10
-3.91266e+10
-3.91536e+10
-3.91386e+10
-3.91227e+10
-3.91015e+10
-3.90926e+10
-3.91222e+10
-3.92277e+10
-3.9448e+10
-3.98101e+10
-4.03227e+10
-4.098e+10
-4.17711e+10
-4.26729e+10
-4.36371e+10
-4.45792e+10
-4.53957e+10
-4.60245e+10
-4.64286e+10
-4.66261e+10
-4.69928e+10
-4.80575e+10
-4.94761e+10
-4.86044e+10
-2.29735e+10
-3.06776e+10
-3.28588e+10
-3.41617e+10
-3.49567e+10
-3.54719e+10
-3.58213e+10
-3.60664e+10
-3.62381e+10
-3.63527e+10
-3.64198e+10
-3.64479e+10
-3.64487e+10
-3.64383e+10
-3.64363e+10
-3.64613e+10
-3.65238e+10
-3.66238e+10
-3.67625e+10
-3.69656e+10
-3.72623e+10
-3.75001e+10
-3.702e+10
-3.48979e+10
-3.21202e+10
-3.45785e+10
-4.83819e+10
-6.05113e+10
-3.07288e+10
-3.91952e+10
-3.9197e+10
-3.92021e+10
-3.91944e+10
-3.91852e+10
-3.91864e+10
-3.92236e+10
-3.9332e+10
-3.95493e+10
-3.98978e+10
-4.03782e+10
-4.09922e+10
-4.17414e+10
-4.26085e+10
-4.35484e+10
-4.44628e+10
-4.52591e+10
-4.59078e+10
-4.63558e+10
-4.66073e+10
-4.69086e+10
-4.75674e+10
-4.82232e+10
-4.69266e+10
-3.73461e+10
-3.32417e+10
-3.32549e+10
-3.40095e+10
-3.47422e+10
-3.52937e+10
-3.56921e+10
-3.59825e+10
-3.61975e+10
-3.63552e+10
-3.64651e+10
-3.65329e+10
-3.65646e+10
-3.65697e+10
-3.65624e+10
-3.65599e+10
-3.65787e+10
-3.66273e+10
-3.67037e+10
-3.68074e+10
-3.69645e+10
-3.7214e+10
-3.74431e+10
-3.70822e+10
-3.52699e+10
-3.27223e+10
-3.45297e+10
-4.65778e+10
-5.78948e+10
-3.03021e+10
-3.91929e+10
-3.92085e+10
-3.9214e+10
-3.92172e+10
-3.92205e+10
-3.92358e+10
-3.92851e+10
-3.93991e+10
-3.96103e+10
-3.99419e+10
-4.04013e+10
-4.09863e+10
-4.16895e+10
-4.24941e+10
-4.33618e+10
-4.42212e+10
-4.499e+10
-4.55889e+10
-4.60028e+10
-4.62913e+10
-4.66987e+10
-4.74432e+10
-4.77601e+10
-4.65482e+10
-3.80976e+10
-3.29439e+10
-3.30067e+10
-3.38503e+10
-3.46494e+10
-3.52443e+10
-3.56695e+10
-3.59768e+10
-3.62027e+10
-3.63671e+10
-3.64804e+10
-3.65481e+10
-3.6576e+10
-3.65731e+10
-3.65531e+10
-3.65334e+10
-3.65302e+10
-3.65529e+10
-3.66005e+10
-3.66733e+10
-3.67968e+10
-3.70063e+10
-3.71794e+10
-3.67255e+10
-3.47284e+10
-3.17342e+10
-3.26964e+10
-4.44552e+10
-5.79711e+10
-3.06097e+10
-3.94045e+10
-3.94123e+10
-3.94347e+10
-3.94594e+10
-3.94913e+10
-3.95377e+10
-3.96139e+10
-3.97398e+10
-3.99366e+10
-4.02181e+10
-4.05873e+10
-4.10416e+10
-4.15738e+10
-4.21652e+10
-4.27816e+10
-4.33658e+10
-4.38506e+10
-4.41771e+10
-4.42991e+10
-4.42626e+10
-4.43019e+10
-4.45548e+10
-4.41812e+10
-4.13411e+10
-3.79259e+10
-3.61684e+10
-3.5509e+10
-3.53769e+10
-3.55143e+10
-3.572e+10
-3.59259e+10
-3.61069e+10
-3.62577e+10
-3.6376e+10
-3.64605e+10
-3.65105e+10
-3.65281e+10
-3.65195e+10
-3.6496e+10
-3.64724e+10
-3.64622e+10
-3.64715e+10
-3.64961e+10
-3.65333e+10
-3.66075e+10
-3.67605e+10
-3.68981e+10
-3.6491e+10
-3.46895e+10
-3.20369e+10
-3.33368e+10
-4.51284e+10
-5.82268e+10
-3.00509e+10
-3.94004e+10
-3.94054e+10
-3.94282e+10
-3.94546e+10
-3.94899e+10
-3.95413e+10
-3.96232e+10
-3.97547e+10
-3.9955e+10
-4.02375e+10
-4.06052e+10
-4.10531e+10
-4.15694e+10
-4.21336e+10
-4.2712e+10
-4.32564e+10
-4.3711e+10
-4.40201e+10
-4.41589e+10
-4.41974e+10
-4.43473e+10
-4.46545e+10
-4.41968e+10
-4.14328e+10
-3.78792e+10
-3.59869e+10
-3.53301e+10
-3.52451e+10
-3.54308e+10
-3.56713e+10
-3.58989e+10
-3.6092e+10
-3.62481e+10
-3.63667e+10
-3.64476e+10
-3.64906e+10
-3.64983e+10
-3.64773e+10
-3.64397e+10
-3.64012e+10
-3.63768e+10
-3.63745e+10
-3.63919e+10
-3.64265e+10
-3.64994e+10
-3.66433e+10
-3.6747e+10
-3.62511e+10
-3.41926e+10
-3.07019e+10
-2.99434e+10
-3.98194e+10
-5.6856e+10
-3.41796e+10
-3.94904e+10
-3.9498e+10
-3.95213e+10
-3.95571e+10
-3.96086e+10
-3.96819e+10
-3.97867e+10
-3.99348e+10
-4.01372e+10
-4.04004e+10
-4.07254e+10
-4.11066e+10
-4.15311e+10
-4.19765e+10
-4.24109e+10
-4.27946e+10
-4.30861e+10
-4.32464e+10
-4.32495e+10
-4.31362e+10
-4.30213e+10
-4.28394e+10
-4.20461e+10
-4.02592e+10
-3.83124e+10
-3.71025e+10
-3.64502e+10
-3.61366e+10
-3.60492e+10
-3.60808e+10
-3.61679e+10
-3.6272e+10
-3.63725e+10
-3.64571e+10
-3.65182e+10
-3.65516e+10
-3.65581e+10
-3.65433e+10
-3.65187e+10
-3.64994e+10
-3.64994e+10
-3.65252e+10
-3.65736e+10
-3.66431e+10
-3.67588e+10
-3.69644e+10
-3.71711e+10
-3.68616e+10
-3.52001e+10
-3.26965e+10
-3.39255e+10
-4.50483e+10
-5.76677e+10
-2.99058e+10
-3.94762e+10
-3.94806e+10
-3.95042e+10
-3.95395e+10
-3.9591e+10
-3.96649e+10
-3.97715e+10
-3.99231e+10
-4.01311e+10
-4.04027e+10
-4.07389e+10
-4.11337e+10
-4.15735e+10
-4.20354e+10
-4.24865e+10
-4.28859e+10
-4.31892e+10
-4.33557e+10
-4.33692e+10
-4.32807e+10
-4.31925e+10
-4.30005e+10
-4.21445e+10
-4.02529e+10
-3.81923e+10
-3.69384e+10
-3.63075e+10
-3.60344e+10
-3.59858e+10
-3.60463e+10
-3.61515e+10
-3.62651e+10
-3.63685e+10
-3.64509e+10
-3.65056e+10
-3.65294e+10
-3.65233e+10
-3.64939e+10
-3.64532e+10
-3.64174e+10
-3.64014e+10
-3.64134e+10
-3.64512e+10
-3.65127e+10
-3.66195e+10
-3.68065e+10
-3.69703e+10
-3.65604e+10
-3.46203e+10
-3.13491e+10
-3.11305e+10
-4.16717e+10
-5.74127e+10
-3.32554e+10
-3.95808e+10
-3.95872e+10
-3.96084e+10
-3.9643e+10
-3.96955e+10
-3.97707e+10
-3.98759e+10
-4.00189e+10
-4.02059e+10
-4.04403e+10
-4.07216e+10
-4.10443e+10
-4.13966e+10
-4.17597e+10
-4.21081e+10
-4.24116e+10
-4.26392e+10
-4.27614e+10
-4.27624e+10
-4.26651e+10
-4.249e+10
-4.21121e+10
-4.12611e+10
-3.99358e+10
-3.85877e+10
-3.75963e+10
-3.69695e+10
-3.66173e+10
-3.64516e+10
-3.64009e+10
-3.64158e+10
-3.64623e+10
-3.65183e+10
-3.65685e+10
-3.6603e+10
-3.66161e+10
-3.66079e+10
-3.65846e+10
-3.65587e+10
-3.65467e+10
-3.6564e+10
-3.66189e+10
-3.671e+10
-3.68375e+10
-3.70279e+10
-3.73229e+10
-3.76206e+10
-3.73704e+10
-3.57017e+10
-3.31569e+10
-3.44923e+10
-4.6156e+10
-5.95091e+10
-3.36768e+10
-3.95879e+10
-3.95894e+10
-3.96106e+10
-3.96437e+10
-3.96941e+10
-3.97665e+10
-3.98686e+10
-4.00083e+10
-4.01925e+10
-4.04252e+10
-4.07064e+10
-4.10311e+10
-4.13887e+10
-4.17612e+10
-4.21239e+10
-4.24462e+10
-4.26932e+10
-4.28315e+10
-4.28469e+10
-4.27658e+10
-4.26048e+10
-4.22243e+10
-4.13444e+10
-3.99738e+10
-3.85885e+10
-3.7594e+10
-3.69837e+10
-3.66487e+10
-3.6495e+10
-3.64507e+10
-3.64672e+10
-3.65123e+10
-3.65647e+10
-3.66099e+10
-3.66383e+10
-3.66445e+10
-3.66288e+10
-3.65977e+10
-3.65636e+10
-3.65425e+10
-3.65491e+10
-3.65901e+10
-3.66613e+10
-3.67591e+10
-3.69039e+10
-3.71303e+10
-3.73273e+10
-3.69183e+10
-3.4987e+10
-3.22157e+10
-3.41528e+10
-4.76666e+10
-6.06572e+10
-3.02699e+10
-3.96877e+10
-3.96976e+10
-3.97214e+10
-3.97589e+10
-3.98134e+10
-3.98885e+10
-3.99887e+10
-4.01184e+10
-4.02806e+10
-4.04761e+10
-4.07025e+10
-4.09543e+10
-4.12214e+10
-4.14902e+10
-4.17428e+10
-4.19572e+10
-4.21073e+10
-4.21705e+10
-4.21411e+10
-4.20304e+10
-4.18236e+10
-4.14231e+10
-4.07185e+10
-3.9774e+10
-3.88221e+10
-3.80403e+10
-3.74706e+10
-3.70926e+10
-3.68613e+10
-3.67326e+10
-3.66715e+10
-3.66513e+10
-3.66515e+10
-3.66563e+10
-3.6654e+10
-3.66375e+10
-3.66052e+10
-3.65623e+10
-3.65204e+10
-3.6495e+10
-3.65009e+10
-3.65448e+10
-3.66233e+10
-3.6734e+10
-3.68991e+10
-3.71493e+10
-3.7352e+10
-3.68916e+10
-3.47941e+10
-3.14842e+10
-3.18394e+10
-4.37426e+10
-6.17101e+10
-4.14579e+10
-3.97065e+10
-3.97115e+10
-3.97357e+10
-3.97721e+10
-3.9825e+10
-3.98974e+10
-3.9994e+10
-4.01191e+10
-4.02757e+10
-4.04648e+10
-4.06841e+10
-4.09285e+10
-4.11889e+10
-4.14522e+10
-4.17015e+10
-4.19144e+10
-4.20647e+10
-4.21304e+10
-4.21063e+10
-4.20042e+10
-4.18094e+10
-4.14237e+10
-4.07383e+10
-3.98122e+10
-3.88763e+10
-3.81063e+10
-3.75424e+10
-3.71636e+10
-3.69265e+10
-3.67895e+10
-3.6719e+10
-3.66896e+10
-3.66815e+10
-3.66795e+10
-3.66723e+10
-3.66531e+10
-3.66208e+10
-3.65806e+10
-3.65443e+10
-3.65267e+10
-3.65413e+10
-3.65924e+10
-3.66728e+10
-3.67747e+10
-3.69144e+10
-3.71177e+10
-3.72443e+10