/*--------------------------------*- C++ -*----------------------------------*\
| =========                 |                                                 |
| \\      /  F ield         | OpenFOAM: The Open Source CFD Toolbox           |
|  \\    /   O peration     | Version:  4.1                                   |
|   \\  /    A nd           | Web:      www.OpenFOAM.org                      |
|    \\/     M anipulation  |                                                 |
\*---------------------------------------------------------------------------*/
FoamFile
{
    version     2.0;
    format      ascii;
    class       surfaceScalarField;
    location    "67";
    object      phi;
}
// * * * * * * * * * * * * * * * * * * * * * * * * * * * * * * * * * * * * * //

dimensions      [0 3 -1 0 0 0 0];

internalField   nonuniform List<scalar> 
11516
(
-3.70531e+10
3.74813e+07
9.12203e+08
-3.77215e+10
-1.94934e+07
6.92291e+08
-3.83014e+10
-3.87705e+07
6.22221e+08
-3.87315e+10
-8.10176e+07
5.14182e+08
-3.91313e+10
-6.88668e+07
4.71185e+08
-3.94988e+10
-7.32008e+07
4.42743e+08
-3.98239e+10
-8.25722e+07
4.09081e+08
-4.01225e+10
-8.72053e+07
3.86501e+08
-4.0392e+10
-9.25154e+07
3.61948e+08
-4.06302e+10
-9.71644e+07
3.34515e+08
-4.08333e+10
-1.01267e+08
3.02655e+08
-4.09973e+10
-1.05543e+08
2.66845e+08
-4.11123e+10
-1.1107e+08
2.22556e+08
-4.11724e+10
-1.18668e+08
1.73645e+08
-4.11698e+10
-1.27693e+08
1.16947e+08
-4.10993e+10
-1.37178e+08
5.51019e+07
-4.09568e+10
-1.46488e+08
-1.11609e+07
-4.07351e+10
-1.54786e+08
-8.38247e+07
-4.04333e+10
-1.62679e+08
-1.57756e+08
-4.00495e+10
-1.70173e+08
-2.33559e+08
-3.9585e+10
-1.77698e+08
-3.09551e+08
-3.90466e+10
-1.84557e+08
-3.78806e+08
-3.84394e+10
-1.90811e+08
-4.44448e+08
-3.77769e+10
-1.95897e+08
-4.97363e+08
-3.70692e+10
-1.99538e+08
-5.4192e+08
-3.6335e+10
-2.01432e+08
-5.7032e+08
-3.55873e+10
-2.01448e+08
-5.88528e+08
-3.48449e+10
-1.99443e+08
-5.90496e+08
-3.41203e+10
-1.9543e+08
-5.82442e+08
-3.34272e+10
-1.89509e+08
-5.62505e+08
-3.27782e+10
-1.8185e+08
-5.31755e+08
-3.21817e+10
-1.72835e+08
-4.93919e+08
-3.16502e+10
-1.62752e+08
-4.44573e+08
-3.11932e+10
-1.52005e+08
-3.86249e+08
-3.08213e+10
-1.40945e+08
-3.17249e+08
-3.05434e+10
-1.30186e+08
-2.37889e+08
-3.03615e+10
-1.23124e+08
-1.508e+08
-3.0275e+10
-1.24646e+08
-5.19122e+07
-3.0275e+10
-1.38406e+08
5.59753e+07
-3.03552e+10
-1.66315e+08
1.78275e+08
-3.05131e+10
-2.07957e+08
3.1949e+08
-3.07496e+10
-2.64264e+08
4.83269e+08
-3.10721e+10
-3.3841e+08
6.77777e+08
-3.14987e+10
-4.36106e+08
9.15863e+08
-3.20751e+10
-5.55637e+08
1.21683e+09
-3.2889e+10
-6.87141e+08
1.59758e+09
-3.40461e+10
-8.27908e+08
2.04652e+09
-3.55602e+10
-1.03874e+09
2.49579e+09
-3.73162e+10
-1.46566e+09
2.93816e+09
-3.91181e+10
-2.23145e+09
3.41528e+09
-4.21919e+10
-3.03946e+09
5.07307e+09
-4.83545e+10
-2.78252e+09
8.09435e+09
-6.11416e+10
-5.33123e+09
1.76056e+10
-4.61708e+09
1.2097e+10
-4.94985e+10
6.38466e+08
-4.99964e+10
4.8088e+08
-5.04256e+10
3.9264e+08
-5.08334e+10
3.28574e+08
-5.11709e+10
2.70221e+08
-5.14806e+10
2.37883e+08
-5.1766e+10
2.03969e+08
-5.2029e+10
1.76659e+08
-5.22682e+10
1.47079e+08
-5.24804e+10
1.15037e+08
-5.26609e+10
7.88162e+07
-5.28073e+10
4.00878e+07
-5.29138e+10
-5.98782e+06
-5.29804e+10
-5.43951e+07
-5.30029e+10
-1.08873e+08
-5.29779e+10
-1.67908e+08
-5.29022e+10
-2.29048e+08
-5.27693e+10
-2.95461e+08
-5.25794e+10
-3.60916e+08
-5.23313e+10
-4.2753e+08
-5.2026e+10
-4.92936e+08
-5.16712e+10
-5.50587e+08
-5.12698e+10
-6.04563e+08
-5.08342e+10
-6.44855e+08
-5.03707e+10
-6.77593e+08
-4.98939e+10
-6.94144e+08
-4.94106e+10
-7.02307e+08
-4.89345e+10
-6.94993e+08
-4.84715e+10
-6.79796e+08
-4.80301e+10
-6.54126e+08
-4.76177e+10
-6.19191e+08
-4.72375e+10
-5.79675e+08
-4.68974e+10
-5.30858e+08
-4.66021e+10
-4.7642e+08
-4.63583e+10
-4.1472e+08
-4.61744e+10
-3.43975e+08
-4.60587e+10
-2.67647e+08
-4.60291e+10
-1.79827e+08
-4.61011e+10
-8.63039e+07
-4.62948e+10
1.65884e+07
-4.66324e+10
1.31382e+08
-4.71385e+10
2.59408e+08
-4.78453e+10
4.04327e+08
-4.87982e+10
5.72402e+08
-5.00608e+10
7.79219e+08
-5.17081e+10
1.03962e+09
-5.38341e+10
1.35596e+09
-5.65664e+10
1.69343e+09
-6.02189e+10
2.05555e+09
-6.54306e+10
2.65227e+09
-7.40611e+10
5.22215e+09
-8.67103e+10
9.44809e+09
-1.08434e+11
1.60806e+10
1.58375e+10
-6.73124e+10
5.76531e+07
1.05514e+09
-6.74913e+10
5.05574e+07
8.25126e+08
-6.76546e+10
3.49722e+07
7.54511e+08
-6.78229e+10
3.23928e+07
6.53989e+08
-6.79589e+10
2.36634e+07
5.87355e+08
-6.80907e+10
2.1328e+07
5.57101e+08
-6.8223e+10
1.78953e+07
5.27231e+08
-6.83512e+10
1.48109e+07
5.0343e+08
-6.84744e+10
1.07871e+07
4.77768e+08
-6.85951e+10
7.08269e+06
4.51335e+08
-6.87113e+10
2.83395e+06
4.18847e+08
-6.88197e+10
-2.00589e+06
3.79745e+08
-6.8919e+10
-7.61128e+06
3.3219e+08
-6.9007e+10
-1.41637e+07
2.77817e+08
-6.90811e+10
-2.16872e+07
2.14581e+08
-6.91394e+10
-3.09007e+07
1.44135e+08
-6.91776e+10
-4.07904e+07
6.68804e+07
-6.92005e+10
-5.08145e+07
-1.22296e+07
-6.92073e+10
-6.08427e+07
-9.14678e+07
-6.92002e+10
-7.15206e+07
-1.7085e+08
-6.91814e+10
-8.26537e+07
-2.47269e+08
-6.91526e+10
-9.43624e+07
-3.15855e+08
-6.91191e+10
-1.06396e+08
-3.7511e+08
-6.90791e+10
-1.18463e+08
-4.22764e+08
-6.90408e+10
-1.30317e+08
-4.53491e+08
-6.90003e+10
-1.41762e+08
-4.72538e+08
-6.89638e+10
-1.52604e+08
-4.76169e+08
-6.89269e+10
-1.62612e+08
-4.69242e+08
-6.88916e+10
-1.71533e+08
-4.51368e+08
-6.88517e+10
-1.79065e+08
-4.29106e+08
-6.88045e+10
-1.84963e+08
-4.00252e+08
-6.87455e+10
-1.88923e+08
-3.70141e+08
-6.86669e+10
-1.90656e+08
-3.384e+08
-6.85641e+10
-1.89649e+08
-3.04117e+08
-6.84296e+10
-1.85379e+08
-2.69335e+08
-6.8264e+10
-1.76071e+08
-2.2724e+08
-6.80711e+10
-1.60724e+08
-1.78184e+08
-6.78479e+10
-1.40143e+08
-1.22749e+08
-6.75908e+10
-1.16368e+08
-6.19711e+07
-6.72892e+10
-8.99058e+07
4.30466e+06
-6.69238e+10
-5.94585e+07
7.0572e+07
-6.64774e+10
-2.49944e+07
1.42923e+08
-6.59248e+10
1.17965e+07
2.22543e+08
-6.52382e+10
5.14048e+07
3.18339e+08
-6.43849e+10
9.42442e+07
4.41559e+08
-6.33252e+10
1.42207e+08
5.94751e+08
-6.19997e+10
1.87689e+08
7.44272e+08
-6.03612e+10
2.06778e+08
8.46564e+08
-5.83692e+10
1.73928e+08
9.12126e+08
-5.65062e+10
1.64747e+08
1.44713e+09
-5.40597e+10
2.91828e+08
2.32818e+09
-4.93772e+10
9.15251e+08
2.44491e+09
-2.09035e+10
-5.01624e+09
-5.83564e+09
-4.66166e+09
-6.34036e+09
-7.69826e+10
7.61972e+08
-7.69987e+10
5.49995e+08
-7.70345e+10
4.65707e+08
-7.707e+10
3.98792e+08
-7.71054e+10
3.31697e+08
-7.71376e+10
2.93636e+08
-7.7175e+10
2.61527e+08
-7.72139e+10
2.32343e+08
-7.72541e+10
2.00043e+08
-7.72982e+10
1.68066e+08
-7.73456e+10
1.30652e+08
-7.73939e+10
8.78204e+07
-7.74439e+10
3.78037e+07
-7.74938e+10
-1.73295e+07
-7.75426e+10
-8.10801e+07
-7.75904e+10
-1.50987e+08
-7.76336e+10
-2.27393e+08
-7.76739e+10
-3.06938e+08
-7.77091e+10
-3.87486e+08
-7.7741e+10
-4.67988e+08
-7.77723e+10
-5.45187e+08
-7.78046e+10
-6.14244e+08
-7.78438e+10
-6.73778e+08
-7.78877e+10
-7.21554e+08
-7.79456e+10
-7.51803e+08
-7.80126e+10
-7.70494e+08
-7.80955e+10
-7.73538e+08
-7.81886e+10
-7.6614e+08
-7.82942e+10
-7.47666e+08
-7.84043e+10
-7.25057e+08
-7.85149e+10
-6.95452e+08
-7.86203e+10
-6.64855e+08
-7.87096e+10
-6.3302e+08
-7.87767e+10
-5.98786e+08
-7.881e+10
-5.64878e+08
-7.87984e+10
-5.27322e+08
-7.87303e+10
-4.88272e+08
-7.85923e+10
-4.44467e+08
-7.83792e+10
-3.94621e+08
-7.8083e+10
-3.38054e+08
-7.76849e+10
-2.81671e+08
-7.71695e+10
-2.20356e+08
-7.65186e+10
-1.55338e+08
-7.57124e+10
-8.23629e+07
-7.47222e+10
3.99717e+06
-7.35001e+10
9.72672e+07
-7.19758e+10
1.62678e+08
-7.01172e+10
1.69387e+08
-6.79356e+10
1.37682e+08
-6.53184e+10
2.43264e+08
-5.98176e+10
-3.19818e+06
-4.74836e+10
-1.93467e+09
-2.92306e+10
-7.01556e+09
-7.18643e+09
-5.8161e+10
1.75095e+08
6.63052e+08
-5.80169e+10
1.90139e+08
4.95402e+08
-5.79151e+10
1.81431e+08
4.75894e+08
-5.78905e+10
1.85546e+08
4.4856e+08
-5.78755e+10
1.71588e+08
4.05295e+08
-5.78681e+10
1.68101e+08
3.8582e+08
-5.78782e+10
1.64948e+08
3.76498e+08
-5.78944e+10
1.61351e+08
3.62182e+08
-5.79159e+10
1.56295e+08
3.46836e+08
-5.79365e+10
1.5155e+08
3.24201e+08
-5.79564e+10
1.46251e+08
2.96042e+08
-5.79729e+10
1.40928e+08
2.58733e+08
-5.79819e+10
1.35607e+08
2.09097e+08
-5.79774e+10
1.30513e+08
1.46692e+08
-5.79566e+10
1.2534e+08
7.25289e+07
-5.79109e+10
1.19687e+08
-1.81833e+07
-5.78357e+10
1.13892e+08
-1.20011e+08
-5.77249e+10
1.06389e+08
-2.28189e+08
-5.75685e+10
9.7693e+07
-3.43531e+08
-5.73673e+10
8.85248e+07
-4.58061e+08
-5.71255e+10
7.95372e+07
-5.65467e+08
-5.68469e+10
7.05897e+07
-6.63376e+08
-5.65425e+10
6.23685e+07
-7.40799e+08
-5.62236e+10
5.52891e+07
-7.95284e+08
-5.58998e+10
4.95815e+07
-8.23106e+08
-5.5587e+10
4.51509e+07
-8.24449e+08
-5.52969e+10
4.17763e+07
-8.00242e+08
-5.504e+10
3.91728e+07
-7.56088e+08
-5.48234e+10
3.69773e+07
-6.94492e+08
-5.46555e+10
3.48194e+07
-6.19735e+08
-5.45361e+10
3.2344e+07
-5.37727e+08
-5.44713e+10
2.93238e+07
-4.47101e+08
-5.44595e+10
2.54672e+07
-3.54642e+08
-5.44993e+10
2.03068e+07
-2.58785e+08
-5.45915e+10
1.29325e+07
-1.57959e+08
-5.472e+10
1.07994e+06
-5.96166e+07
-5.48673e+10
-1.6405e+07
3.6321e+07
-5.50183e+10
-3.76571e+07
1.31181e+08
-5.51588e+10
-5.99062e+07
2.22742e+08
-5.52708e+10
-8.32517e+07
3.09308e+08
-5.53454e+10
-1.10638e+08
3.97937e+08
-5.53614e+10
-1.43506e+08
4.85048e+08
-5.52979e+10
-1.83205e+08
5.7336e+08
-5.51188e+10
-2.3013e+08
6.56981e+08
-5.47757e+10
-2.85065e+08
7.31577e+08
-5.42164e+10
-3.50317e+08
7.89612e+08
-5.34201e+10
-4.40167e+08
8.27702e+08
-5.23627e+10
-5.92174e+08
8.17569e+08
-5.09101e+10
-8.29829e+08
6.94301e+08
-4.85774e+10
-1.04346e+09
5.27549e+08
-4.59232e+10
-1.02383e+09
1.1144e+09
-4.44234e+10
-8.63391e+08
2.4102e+09
-5.33146e+10
-9.36721e+09
1.31004e+10
-1.14442e+10
9.60382e+09
-6.47101e+10
7.89871e+08
-6.45866e+10
6.1918e+08
-6.45219e+10
5.85042e+08
-6.44818e+10
5.46832e+08
-6.44825e+10
5.06361e+08
-6.44973e+10
4.7863e+08
-6.45298e+10
4.60998e+08
-6.45712e+10
4.36977e+08
-6.46262e+10
4.13165e+08
-6.46871e+10
3.82313e+08
-6.47556e+10
3.47118e+08
-6.48282e+10
3.03095e+08
-6.48996e+10
2.46652e+08
-6.49614e+10
1.77031e+08
-6.50115e+10
9.63091e+07
-6.50414e+10
246601
-6.50463e+10
-1.07603e+08
-6.50254e+10
-2.20707e+08
-6.49737e+10
-3.40493e+08
-6.48922e+10
-4.5921e+08
-6.47848e+10
-5.71714e+08
-6.46518e+10
-6.75664e+08
-6.45019e+10
-7.60375e+08
-6.43428e+10
-8.23663e+08
-6.41799e+10
-8.61791e+08
-6.40251e+10
-8.74896e+08
-6.38864e+10
-8.63732e+08
-6.37713e+10
-8.33962e+08
-6.36846e+10
-7.87746e+08
-6.36343e+10
-7.29181e+08
-6.36197e+10
-6.64298e+08
-6.36478e+10
-5.91315e+08
-6.37182e+10
-5.17836e+08
-6.38309e+10
-4.42345e+08
-6.39918e+10
-3.6273e+08
-6.41989e+10
-2.84597e+08
-6.44555e+10
-2.05553e+08
-6.476e+10
-1.24715e+08
-6.5102e+10
-4.59842e+07
-6.54678e+10
2.83709e+07
-6.58616e+10
1.07449e+08
-6.62785e+10
1.85781e+08
-6.67183e+10
2.65846e+08
-6.71736e+10
3.43256e+08
-6.76344e+10
4.17678e+08
-6.81024e+10
4.8536e+08
-6.86372e+10
5.45138e+08
-6.93582e+10
5.84055e+08
-7.0394e+10
6.21421e+08
-7.1834e+10
9.31496e+08
-7.51592e+10
2.72547e+09
-8.33593e+10
6.09386e+09
-1.12402e+11
1.34081e+10
1.1737e+10
-6.42859e+10
5.5959e+07
6.31187e+08
-6.43955e+10
5.02188e+07
5.58039e+08
-6.44744e+10
4.78369e+07
5.10201e+08
-6.45655e+10
4.08151e+07
5.01838e+08
-6.46734e+10
3.2566e+07
4.8318e+08
-6.47838e+10
2.89454e+07
4.69311e+08
-6.48937e+10
2.89563e+07
4.59154e+08
-6.50079e+10
2.81678e+07
4.4996e+08
-6.51238e+10
2.66529e+07
4.37767e+08
-6.5239e+10
2.53176e+07
4.15952e+08
-6.5348e+10
2.34577e+07
3.83357e+08
-6.54454e+10
2.13283e+07
3.36365e+08
-6.55269e+10
1.86855e+07
2.73477e+08
-6.55882e+10
1.55142e+07
1.95014e+08
-6.56212e+10
1.13583e+07
9.67703e+07
-6.56284e+10
6.03293e+06
-1.40531e+07
-6.56107e+10
-782182
-1.35672e+08
-6.55628e+10
-8.19945e+06
-2.6701e+08
-6.54868e+10
-1.5857e+07
-4.03235e+08
-6.53788e+10
-2.34608e+07
-5.40526e+08
-6.52417e+10
-3.10909e+07
-6.69664e+08
-6.50806e+10
-3.80434e+07
-7.85001e+08
-6.49011e+10
-4.37749e+07
-8.75049e+08
-6.47117e+10
-4.7586e+07
-9.33584e+08
-6.45192e+10
-4.9092e+07
-9.59285e+08
-6.43338e+10
-4.8164e+07
-9.49987e+08
-6.41616e+10
-4.48414e+07
-9.11617e+08
-6.40076e+10
-3.92672e+07
-8.51059e+08
-6.38742e+10
-3.17187e+07
-7.72559e+08
-6.37583e+10
-2.25776e+07
-6.8519e+08
-6.36596e+10
-1.21625e+07
-5.91255e+08
-6.35708e+10
-797538
-4.96095e+08
-6.34892e+10
1.11984e+07
-4.01326e+08
-6.34072e+10
2.33917e+07
-3.09801e+08
-6.33139e+10
3.5278e+07
-2.22535e+08
-6.32049e+10
4.51972e+07
-1.38606e+08
-6.3069e+10
5.2312e+07
-6.28554e+07
-6.28985e+10
5.59303e+07
1.03181e+07
-6.26897e+10
5.63081e+07
8.43312e+07
-6.24358e+10
5.39177e+07
1.53817e+08
-6.21204e+10
4.80585e+07
2.18785e+08
-6.1725e+10
3.68499e+07
2.74642e+08
-6.12251e+10
1.88839e+07
3.20012e+08
-6.06056e+10
-6.21011e+06
3.56285e+08
-5.98495e+10
-3.76491e+07
3.73541e+08
-5.8944e+10
-7.75167e+07
3.61651e+08
-5.78568e+10
-1.39883e+08
3.04198e+08
-5.65501e+10
-2.38863e+08
1.84577e+08
-5.50256e+10
-3.38345e+08
-2.81658e+07
-5.32789e+10
-2.5652e+08
-4.06746e+08
-5.03267e+10
1.42684e+08
-1.30866e+09
-4.57549e+10
1.01107e+09
-2.25223e+09
-2.23675e+10
-9.87166e+09
3.44602e+08
-7.99933e+09
-6.62497e+08
-6.56942e+10
8.08083e+08
-6.57336e+10
7.10537e+08
-6.57706e+10
6.71759e+08
-6.58149e+10
6.3368e+08
-6.58765e+10
6.0181e+08
-6.59457e+10
5.77889e+08
-6.60125e+10
5.57683e+08
-6.60841e+10
5.37629e+08
-6.61588e+10
5.1554e+08
-6.62349e+10
4.84578e+08
-6.63084e+10
4.44924e+08
-6.63753e+10
3.91893e+08
-6.64331e+10
3.23886e+08
-6.64807e+10
2.41046e+08
-6.65117e+10
1.39883e+08
-6.6532e+10
2.74314e+07
-6.65474e+10
-9.31325e+07
-6.65556e+10
-2.21534e+08
-6.65591e+10
-3.53552e+08
-6.6557e+10
-4.85349e+08
-6.65526e+10
-6.07924e+08
-6.65512e+10
-7.16057e+08
-6.65575e+10
-7.98756e+08
-6.65776e+10
-8.50343e+08
-6.66151e+10
-8.69985e+08
-6.66758e+10
-8.55989e+08
-6.67607e+10
-8.14549e+08
-6.68696e+10
-7.52615e+08
-6.70005e+10
-6.74325e+08
-6.71467e+10
-5.88409e+08
-6.73059e+10
-4.96809e+08
-6.7469e+10
-4.04575e+08
-6.76335e+10
-3.13037e+08
-6.77932e+10
-2.24572e+08
-6.79399e+10
-1.39858e+08
-6.80737e+10
-5.71128e+07
-6.81886e+10
1.92442e+07
-6.82803e+10
9.21e+07
-6.83478e+10
1.6144e+08
-6.839e+10
2.26135e+08
-6.84001e+10
2.89338e+08
-6.83729e+10
3.45705e+08
-6.83017e+10
3.94317e+08
-6.8187e+10
4.36655e+08
-6.80212e+10
4.61821e+08
-6.78e+10
4.61533e+08
-6.7525e+10
4.21631e+08
-6.71892e+10
3.16118e+08
-6.66387e+10
7.48947e+07
-6.51872e+10
-3.44527e+08
-6.04248e+10
-1.2504e+09
-5.04408e+10
-2.10505e+09
-4.80278e+10
1.56086e+09
2.15198e+09
-6.07895e+10
2.16255e+07
5.72357e+08
-6.07741e+10
1.62375e+07
5.28071e+08
-6.07921e+10
1.44584e+07
5.15552e+08
-6.08102e+10
1.44263e+07
5.06954e+08
-6.08485e+10
1.51874e+07
5.07479e+08
-6.09028e+10
1.76402e+07
5.06698e+08
-6.0967e+10
2.04822e+07
5.03263e+08
-6.10391e+10
2.27233e+07
4.99532e+08
-6.11147e+10
2.46601e+07
4.88781e+08
-6.11927e+10
2.62033e+07
4.67425e+08
-6.12708e+10
2.69347e+07
4.33691e+08
-6.13462e+10
2.70992e+07
3.82951e+08
-6.14175e+10
2.72126e+07
3.15062e+08
-6.14757e+10
2.74409e+07
2.22902e+08
-6.15169e+10
2.8488e+07
1.06471e+08
-6.15343e+10
3.06946e+07
-3.13609e+07
-6.15201e+10
3.33338e+07
-1.89813e+08
-6.14699e+10
3.54619e+07
-3.62275e+08
-6.1379e+10
3.64239e+07
-5.41937e+08
-6.12445e+10
3.63518e+07
-7.23476e+08
-6.10654e+10
3.47787e+07
-8.96896e+08
-6.08438e+10
3.15693e+07
-1.05318e+09
-6.05861e+10
2.658e+07
-1.1755e+09
-6.03016e+10
1.99777e+07
-1.25322e+09
-6.00041e+10
1.18288e+07
-1.28071e+09
-5.97049e+10
2.19568e+06
-1.25978e+09
-5.94157e+10
-8.79763e+06
-1.19728e+09
-5.91444e+10
-2.08254e+07
-1.10457e+09
-5.88953e+10
-3.35016e+07
-9.89331e+08
-5.867e+10
-4.64912e+07
-8.63218e+08
-5.84675e+10
-5.944e+07
-7.3093e+08
-5.8286e+10
-7.2067e+07
-5.99024e+08
-5.81221e+10
-8.42178e+07
-4.70652e+08
-5.79738e+10
-9.59756e+07
-3.4707e+08
-5.78373e+10
-1.074e+08
-2.3097e+08
-5.77072e+10
-1.18802e+08
-1.22891e+08
-5.7581e+10
-1.3043e+08
-2.33461e+07
-5.74433e+10
-1.44009e+08
6.23252e+07
-5.72731e+10
-1.62336e+08
1.36193e+08
-5.70509e+10
-1.83975e+08
1.93473e+08
-5.6758e+10
-2.0688e+08
2.34321e+08
-5.63752e+10
-2.3427e+08
2.57034e+08
-5.58745e+10
-2.68518e+08
2.53685e+08
-5.52241e+10
-3.1144e+08
2.21383e+08
-5.4389e+10
-3.66037e+08
1.45363e+08
-5.33341e+10
-4.38875e+08
1.15208e+07
-5.19927e+10
-5.55839e+08
-2.10018e+08
-5.02497e+10
-7.44544e+08
-5.51973e+08
-4.79877e+10
-9.81247e+08
-1.04233e+09
-4.53337e+10
-1.10063e+09
-1.68896e+09
-4.22839e+10
-1.12917e+09
-2.75614e+09
-4.10222e+10
-6.87937e+08
-2.35889e+09
-2.30035e+10
-7.60108e+09
-9.85241e+09
-5.19523e+09
-9.59287e+09
-5.79923e+10
6.83803e+08
-5.78998e+10
6.34967e+08
-5.78432e+10
6.30252e+08
-5.78059e+10
6.11136e+08
-5.77935e+10
6.04853e+08
-5.77999e+10
6.01846e+08
-5.78168e+10
5.94751e+08
-5.7844e+10
5.87089e+08
-5.7878e+10
5.73522e+08
-5.79183e+10
5.50025e+08
-5.79628e+10
5.14641e+08
-5.80083e+10
4.6208e+08
-5.8053e+10
3.9263e+08
-5.80876e+10
2.99496e+08
-5.81055e+10
1.82144e+08
-5.80947e+10
4.17e+07
-5.80403e+10
-1.22019e+08
-5.79333e+10
-3.03107e+08
-5.77679e+10
-4.93914e+08
-5.7541e+10
-6.88669e+08
-5.72521e+10
-8.76145e+08
-5.69055e+10
-1.04696e+09
-5.65109e+10
-1.1834e+09
-5.60834e+10
-1.27405e+09
-5.56435e+10
-1.31259e+09
-5.52095e+10
-1.30062e+09
-5.47991e+10
-1.24522e+09
-5.44252e+10
-1.15821e+09
-5.40953e+10
-1.0481e+09
-5.38128e+10
-9.27269e+08
-5.35769e+10
-8.01171e+08
-5.33849e+10
-6.76635e+08
-5.32317e+10
-5.5691e+08
-5.31134e+10
-4.43422e+08
-5.30241e+10
-3.39046e+08
-5.2956e+10
-2.43637e+08
-5.29057e+10
-1.57479e+08
-5.28628e+10
-8.56012e+07
-5.28197e+10
-2.72942e+07
-5.27626e+10
1.22174e+07
-5.26725e+10
3.34141e+07
-5.25391e+10
3.71615e+07
-5.23517e+10
1.87807e+07
-5.20985e+10
-2.45171e+07
-5.17723e+10
-1.0706e+08
-5.13753e+10
-2.4175e+08
-5.09302e+10
-4.52604e+08
-5.04545e+10
-7.94287e+08
-4.98202e+10
-1.43977e+09
-4.84667e+10
-2.63534e+09
-4.62155e+10
-4.43941e+09
-4.27745e+10
-6.06312e+09
-3.20687e+10
-1.67664e+10
-8.26323e+09
-5.84822e+10
2.02926e+08
3.39453e+08
-5.84983e+10
2.06506e+08
3.37328e+08
-5.8542e+10
2.134e+08
3.45406e+08
-5.86042e+10
2.17099e+08
3.51512e+08
-5.86835e+10
2.21291e+08
3.64773e+08
-5.87809e+10
2.25624e+08
3.77283e+08
-5.88962e+10
2.30017e+08
3.86937e+08
-5.90266e+10
2.34331e+08
3.93415e+08
-5.91696e+10
2.38683e+08
3.90295e+08
-5.9324e+10
2.42742e+08
3.75198e+08
-5.94843e+10
2.46557e+08
3.42196e+08
-5.9648e+10
2.49791e+08
2.89418e+08
-5.98079e+10
2.5257e+08
2.12904e+08
-5.99582e+10
2.54557e+08
1.06985e+08
-6.0094e+10
2.5565e+08
-2.64511e+07
-6.02092e+10
2.5543e+08
-1.87392e+08
-6.0302e+10
2.5318e+08
-3.70422e+08
-6.03675e+10
2.4831e+08
-5.70414e+08
-6.04032e+10
2.41186e+08
-7.76862e+08
-6.04092e+10
2.32139e+08
-9.82838e+08
-6.0385e+10
2.2165e+08
-1.17935e+09
-6.03342e+10
2.09585e+08
-1.3544e+09
-6.02654e+10
1.96254e+08
-1.48494e+09
-6.01927e+10
1.82044e+08
-1.55412e+09
-6.01325e+10
1.67261e+08
-1.55456e+09
-6.0096e+10
1.51865e+08
-1.49486e+09
-6.00896e+10
1.35846e+08
-1.38731e+09
-6.01146e+10
1.19293e+08
-1.24894e+09
-6.01648e+10
1.02443e+08
-1.09494e+09
-6.02355e+10
8.56617e+07
-9.35269e+08
-6.03171e+10
6.93263e+07
-7.797e+08
-6.04017e+10
5.37852e+07
-6.33362e+08
-6.04834e+10
3.92451e+07
-4.97697e+08
-6.05551e+10
2.59301e+07
-3.75691e+08
-6.06137e+10
1.38909e+07
-2.66162e+08
-6.06553e+10
3.20781e+06
-1.70358e+08
-6.06824e+10
-5.48469e+06
-8.32492e+07
-6.07028e+10
-1.07371e+07
-5.09605e+06
-6.07201e+10
-1.2759e+07
6.22978e+07
-6.07392e+10
-1.36852e+07
1.19004e+08
-6.07599e+10
-1.46219e+07
1.61336e+08
-6.07832e+10
-1.50653e+07
1.89537e+08
-6.08138e+10
-1.59143e+07
1.98866e+08
-6.08565e+10
-1.91183e+07
1.86486e+08
-6.09332e+10
-2.71737e+07
1.50478e+08
-6.10719e+10
-4.54646e+07
7.67275e+07
-6.13227e+10
-8.26653e+07
-5.10324e+07
-6.17082e+10
-1.60533e+08
-2.80297e+08
-6.20773e+10
-3.1478e+08
-7.65541e+08
-6.17281e+10
-5.85628e+08
-1.90804e+09
-5.97883e+10
-1.01996e+09
-4.38634e+09
-5.17012e+10
-2.87465e+09
-8.27606e+09
-3.50601e+10
-8.69886e+09
-1.81975e+10
-4.59533e+09
-3.89848e+09
-6.12672e+10
9.06255e+08
-6.13586e+10
9.32829e+08
-6.14446e+10
9.29664e+08
-6.15473e+10
9.30852e+08
-6.16618e+10
9.40439e+08
-6.17869e+10
9.52086e+08
-6.19228e+10
9.59822e+08
-6.20662e+10
9.63662e+08
-6.2213e+10
9.57292e+08
-6.23611e+10
9.38582e+08
-6.25042e+10
9.00798e+08
-6.26389e+10
8.41794e+08
-6.27568e+10
7.56864e+08
-6.285e+10
6.39748e+08
-6.2912e+10
4.90957e+08
-6.29356e+10
3.09947e+08
-6.2921e+10
1.02904e+08
-6.28692e+10
-1.2317e+08
-6.27842e+10
-3.57127e+08
-6.26685e+10
-5.93821e+08
-6.25212e+10
-8.25762e+08
-6.23442e+10
-1.04097e+09
-6.2144e+10
-1.21594e+09
-6.19332e+10
-1.3322e+09
-6.17282e+10
-1.38007e+09
-6.15414e+10
-1.36581e+09
-6.13825e+10
-1.29955e+09
-6.12572e+10
-1.1971e+09
-6.11649e+10
-1.07317e+09
-6.11065e+10
-9.37782e+08
-6.10776e+10
-8.01045e+08
-6.10754e+10
-6.68242e+08
-6.10984e+10
-5.40923e+08
-6.11429e+10
-4.22528e+08
-6.12095e+10
-3.1192e+08
-6.12969e+10
-2.10813e+08
-6.1405e+10
-1.16869e+08
-6.15356e+10
-3.21722e+07
-6.1688e+10
4.23988e+07
-6.18696e+10
1.07988e+08
-6.2089e+10
1.65923e+08
-6.23561e+10
2.18701e+08
-6.26824e+10
2.61872e+08
-6.30838e+10
2.92785e+08
-6.35972e+10
3.10362e+08
-6.42751e+10
3.02967e+08
-6.51992e+10
2.5634e+08
-6.64622e+10
1.0378e+08
-6.81104e+10
-3.81107e+08
-6.99656e+10
-1.75789e+09
-7.14874e+10
-4.40694e+09
-7.24059e+10
-8.44111e+09
-8.07979e+10
-1.74674e+10
5.78912e+09
-5.4604e+10
4.10073e+08
-9.29691e+07
-5.46502e+10
4.35896e+08
-4.9579e+07
-5.47194e+10
4.40286e+08
-2.30599e+07
-5.48186e+10
4.48662e+08
4.65097e+06
-5.49418e+10
4.54889e+08
3.53941e+07
-5.50857e+10
4.59402e+08
6.38271e+07
-5.525e+10
4.62586e+08
9.02742e+07
-5.54316e+10
4.65319e+08
1.10811e+08
-5.56283e+10
4.67085e+08
1.2028e+08
-5.58334e+10
4.67149e+08
1.12471e+08
-5.60463e+10
4.64656e+08
8.80017e+07
-5.62567e+10
4.59592e+08
3.54584e+07
-5.64545e+10
4.52125e+08
-4.88384e+07
-5.66296e+10
4.42116e+08
-1.69464e+08
-5.67676e+10
4.29412e+08
-3.29041e+08
-5.6855e+10
4.1437e+08
-5.27506e+08
-5.68787e+10
3.9774e+08
-7.6111e+08
-5.6831e+10
3.81211e+08
-1.01987e+09
-5.67048e+10
3.66518e+08
-1.29407e+09
-5.64967e+10
3.53445e+08
-1.5721e+09
-5.62012e+10
3.41427e+08
-1.84737e+09
-5.58198e+10
3.301e+08
-2.10064e+09
-5.53636e+10
3.20084e+08
-2.29919e+09
-5.48673e+10
3.12538e+08
-2.40338e+09
-5.43704e+10
3.08429e+08
-2.40168e+09
-5.39119e+10
3.08141e+08
-2.30509e+09
-5.35156e+10
3.11485e+08
-2.14101e+09
-5.31936e+10
3.17678e+08
-1.93813e+09
-5.29486e+10
3.25682e+08
-1.71951e+09
-5.27722e+10
3.34543e+08
-1.50519e+09
-5.26561e+10
3.43502e+08
-1.30378e+09
-5.25872e+10
3.51934e+08
-1.12425e+09
-5.25536e+10
3.59413e+08
-9.66979e+08
-5.25453e+10
3.65835e+08
-8.32859e+08
-5.25527e+10
3.71356e+08
-7.20875e+08
-5.25688e+10
3.7604e+08
-6.29617e+08
-5.25821e+10
3.78839e+08
-5.57391e+08
-5.2582e+10
3.79666e+08
-5.02786e+08
-5.25652e+10
3.80945e+08
-4.62063e+08
-5.25263e+10
3.83984e+08
-4.37392e+08
-5.24693e+10
3.88044e+08
-4.21922e+08
-5.23947e+10
3.93162e+08
-4.18312e+08
-5.23064e+10
3.99134e+08
-4.28122e+08
-5.2215e+10
4.0518e+08
-4.49553e+08
-5.21466e+10
4.11808e+08
-4.75995e+08
-5.21593e+10
4.23319e+08
-5.07737e+08
-5.2368e+10
4.5092e+08
-5.32436e+08
-5.29675e+10
5.16247e+08
-5.50222e+08
-5.42427e+10
6.05209e+08
-6.03755e+08
-5.65761e+10
4.84269e+08
-8.99354e+08
-6.02835e+10
1.92393e+07
-1.76903e+09
-6.50208e+10
-1.84176e+09
-2.81212e+09
-6.85164e+10
-7.59347e+09
-7.92091e+09
1.15705e+10
-3.36881e+08
-5.82798e+10
1.22182e+09
-5.81751e+10
1.26705e+09
-5.80919e+10
1.28959e+09
-5.80218e+10
1.31223e+09
-5.79642e+10
1.3403e+09
-5.7916e+10
1.36571e+09
-5.78791e+10
1.38779e+09
-5.7852e+10
1.4038e+09
-5.78344e+10
1.40819e+09
-5.7822e+10
1.39399e+09
-5.78186e+10
1.36148e+09
-5.78191e+10
1.29977e+09
-5.78186e+10
1.20475e+09
-5.78135e+10
1.07162e+09
-5.7797e+10
8.97496e+08
-5.77628e+10
6.8221e+08
-5.7701e+10
4.28715e+08
-5.76025e+10
1.47094e+08
-5.74548e+10
-1.52807e+08
-5.72518e+10
-4.59872e+08
-5.69895e+10
-7.65415e+08
-5.66716e+10
-1.04997e+09
-5.63103e+10
-1.28009e+09
-5.59386e+10
-1.41557e+09
-5.55916e+10
-1.44416e+09
-5.53007e+10
-1.37567e+09
-5.5082e+10
-1.23595e+09
-5.49407e+10
-1.05244e+09
-5.48758e+10
-8.47139e+08
-5.4878e+10
-6.39363e+08
-5.49403e+10
-4.37029e+08
-5.50537e+10
-2.4852e+08
-5.52109e+10
-7.39066e+07
-5.54081e+10
8.6235e+07
-5.56427e+10
2.3452e+08
-5.59151e+10
3.72439e+08
-5.62277e+10
5.03393e+08
-5.65873e+10
6.29739e+08
-5.70016e+10
7.54788e+08
-5.74734e+10
8.76469e+08
-5.80133e+10
1.00396e+09
-5.863e+10
1.13766e+09
-5.93388e+10
1.27907e+09
-6.01628e+10
1.43064e+09
-6.11407e+10
1.60148e+09
-6.23384e+10
1.80197e+09
-6.38598e+10
2.05623e+09
-6.58482e+10
2.3531e+09
-6.86538e+10
2.62644e+09
-7.33766e+10
2.86949e+09
-8.19807e+10
3.50304e+09
-9.87593e+10
5.6959e+09
-1.32523e+11
8.01627e+09
-3.25368e+10
-5.95784e+10
6.82263e+07
-1.69651e+08
-5.96069e+10
8.47176e+07
-9.72261e+07
-5.96558e+10
9.09699e+07
-5.70379e+07
-5.97288e+10
9.73932e+07
-1.18823e+07
-5.98232e+10
1.02873e+08
3.46209e+07
-5.99375e+10
1.0668e+08
7.91918e+07
-6.00729e+10
1.10007e+08
1.23236e+08
-6.02253e+10
1.13747e+08
1.5676e+08
-6.03944e+10
1.17507e+08
1.78519e+08
-6.05783e+10
1.21054e+08
1.81121e+08
-6.07683e+10
1.24152e+08
1.58278e+08
-6.09594e+10
1.2716e+08
1.01641e+08
-6.11418e+10
1.30426e+08
3.10302e+06
-6.13025e+10
1.34363e+08
-1.44941e+08
-6.14287e+10
1.3934e+08
-3.45151e+08
-6.15047e+10
1.4566e+08
-6.00724e+08
-6.15174e+10
1.53624e+08
-9.06373e+08
-6.14527e+10
1.63922e+08
-1.25424e+09
-6.13025e+10
1.76705e+08
-1.62848e+09
-6.10626e+10
1.90694e+08
-2.01184e+09
-6.0725e+10
2.02659e+08
-2.39941e+09
-6.02729e+10
2.09887e+08
-2.77706e+09
-5.97056e+10
2.10038e+08
-3.09301e+09
-5.90544e+10
2.01054e+08
-3.27376e+09
-5.83725e+10
1.8268e+08
-3.28713e+09
-5.77008e+10
1.57414e+08
-3.15821e+09
-5.70639e+10
1.29246e+08
-2.93413e+09
-5.64737e+10
1.01809e+08
-2.6604e+09
-5.5932e+10
7.78346e+07
-2.37334e+09
-5.54357e+10
5.89204e+07
-2.09899e+09
-5.49789e+10
4.56805e+07
-1.84925e+09
-5.45585e+10
3.78745e+07
-1.63028e+09
-5.41707e+10
3.44209e+07
-1.44194e+09
-5.38135e+10
3.42408e+07
-1.28272e+09
-5.34857e+10
3.64977e+07
-1.14976e+09
-5.31902e+10
3.98649e+07
-1.03687e+09
-5.29281e+10
4.40243e+07
-9.42902e+08
-5.27047e+10
4.63841e+07
-8.59729e+08
-5.25216e+10
4.51411e+07
-7.84509e+08
-5.23851e+10
3.82434e+07
-7.11978e+08
-5.22939e+10
2.19941e+07
-6.38012e+08
-5.22515e+10
-7.85991e+06
-5.5594e+08
-5.22662e+10
-5.56554e+07
-4.57912e+08
-5.23452e+10
-1.26615e+08
-3.39878e+08
-5.25062e+10
-2.25782e+08
-1.85769e+08
-5.27977e+10
-3.52144e+08
2.00556e+07
-5.33298e+10
-4.96031e+08
3.2266e+08
-5.43076e+10
-6.50634e+08
7.76247e+08
-5.61466e+10
-8.48841e+08
1.55152e+09
-5.95727e+10
-1.20985e+09
2.89552e+09
-6.73644e+10
-1.31704e+09
6.15091e+09
-8.118e+10
-1.40497e+09
1.1273e+10
-1.14598e+11
1.37849e+09
2.3217e+10
6.26519e+09
2.12735e+09
-5.83986e+10
1.28051e+09
-5.83928e+10
1.35155e+09
-5.84071e+10
1.40021e+09
-5.84445e+10
1.45219e+09
-5.85017e+10
1.50557e+09
-5.85798e+10
1.5556e+09
-5.86821e+10
1.60512e+09
-5.88048e+10
1.64505e+09
-5.89483e+10
1.67372e+09
-5.91119e+10
1.68244e+09
-5.92885e+10
1.66504e+09
-5.94731e+10
1.61305e+09
-5.96557e+10
1.5179e+09
-5.98223e+10
1.37158e+09
-5.9958e+10
1.17101e+09
-6.00449e+10
9.12824e+08
-6.00666e+10
6.01753e+08
-6.0004e+10
2.45522e+08
-5.98425e+10
-1.41218e+08
-5.95676e+10
-5.49194e+08
-5.9163e+10
-9.74479e+08
-5.86103e+10
-1.40171e+09
-5.79138e+10
-1.77682e+09
-5.71205e+10
-2.0191e+09
-5.63079e+10
-2.08736e+09
-5.55413e+10
-2.00047e+09
-5.48622e+10
-1.80357e+09
-5.42898e+10
-1.54306e+09
-5.38248e+10
-1.25682e+09
-5.34583e+10
-9.72041e+08
-5.31763e+10
-7.01103e+08
-5.29672e+10
-4.50434e+08
-5.28182e+10
-2.22173e+08
-5.27188e+10
-1.59769e+07
-5.26597e+10
1.71121e+08
-5.26317e+10
3.39399e+08
-5.26241e+10
4.90768e+08
-5.26342e+10
6.33278e+08
-5.26583e+10
7.67802e+08
-5.26992e+10
8.97617e+08
-5.2754e+10
1.02256e+09
-5.28224e+10
1.14201e+09
-5.29081e+10
1.25678e+09
-5.30136e+10
1.36109e+09
-5.31445e+10
1.45763e+09
-5.33074e+10
1.5502e+09
-5.3512e+10
1.66195e+09
-5.38219e+10
1.8258e+09
-5.45768e+10
2.21268e+09
-5.64738e+10
3.06047e+09
-6.03642e+10
5.45061e+09
-6.43051e+10
7.73961e+09
-7.41895e+10
1.91149e+10
7.74417e+09
-6.17512e+10
3.43297e+07
-2.15306e+08
-6.17547e+10
4.8026e+07
-1.33131e+08
-6.17777e+10
5.98367e+07
-8.54188e+07
-6.18201e+10
7.0848e+07
-3.20799e+07
-6.18827e+10
8.31308e+07
2.23227e+07
-6.19647e+10
9.53969e+07
7.40556e+07
-6.20664e+10
1.08351e+08
1.24993e+08
-6.21893e+10
1.22289e+08
1.65772e+08
-6.23312e+10
1.36884e+08
1.921e+08
-6.2492e+10
1.5181e+08
1.98496e+08
-6.26684e+10
1.67062e+08
1.75388e+08
-6.28515e+10
1.82476e+08
1.09165e+08
-6.30333e+10
1.97741e+08
-7.29732e+06
-6.32021e+10
2.12751e+08
-1.8394e+08
-6.33401e+10
2.27606e+08
-4.29586e+08
-6.34317e+10
2.42121e+08
-7.44779e+08
-6.34582e+10
2.56419e+08
-1.12807e+09
-6.34059e+10
2.7072e+08
-1.56787e+09
-6.32674e+10
2.85851e+08
-2.04265e+09
-6.30429e+10
3.00438e+08
-2.52914e+09
-6.27328e+10
3.14486e+08
-3.01934e+09
-6.23187e+10
3.29655e+08
-3.51785e+09
-6.1793e+10
3.46284e+08
-3.96252e+09
-6.12172e+10
3.6343e+08
-4.21088e+09
-6.06985e+10
3.76762e+08
-4.18306e+09
-6.03016e+10
3.807e+08
-3.93876e+09
-6.00339e+10
3.71869e+08
-3.578e+09
-5.9876e+10
3.49744e+08
-3.1726e+09
-5.97924e+10
3.16445e+08
-2.77809e+09
-5.97481e+10
2.75476e+08
-2.42338e+09
-5.9712e+10
2.30038e+08
-2.11982e+09
-5.96629e+10
1.82121e+08
-1.86546e+09
-5.95838e+10
1.32425e+08
-1.65649e+09
-5.94639e+10
8.21896e+07
-1.48663e+09
-5.92995e+10
3.1841e+07
-1.34634e+09
-5.90842e+10
-1.8262e+07
-1.23232e+09
-5.88186e+10
-6.76398e+07
-1.13664e+09
-5.84989e+10
-1.14827e+08
-1.05666e+09
-5.81269e+10
-1.59382e+08
-9.83485e+08
-5.77004e+10
-2.01279e+08
-9.15308e+08
-5.7216e+10
-2.4093e+08
-8.47747e+08
-5.66668e+10
-2.79972e+08
-7.75412e+08
-5.60433e+10
-3.19573e+08
-6.91365e+08
-5.53342e+10
-3.6051e+08
-5.9227e+08
-5.45343e+10
-4.00368e+08
-4.6239e+08
-5.3653e+10
-4.30287e+08
-2.88048e+08
-5.2702e+10
-4.39306e+08
-4.93168e+07
-5.16776e+10
-4.26411e+08
2.89599e+08
-5.04018e+10
-4.47121e+08
7.41754e+08
-4.88053e+10
-4.02843e+08
1.6423e+09
-4.69341e+10
1.52219e+08
4.08635e+09
-4.61837e+10
2.18729e+09
8.39167e+09
-4.94029e+10
7.23579e+09
1.9598e+10
3.32049e+09
7.47469e+09
-6.24943e+10
1.37417e+09
-6.25843e+10
1.49561e+09
-6.26843e+10
1.56598e+09
-6.28094e+10
1.65405e+09
-6.29554e+10
1.74071e+09
-6.31248e+10
1.82645e+09
-6.33187e+10
1.9137e+09
-6.35379e+10