/*--------------------------------*- C++ -*----------------------------------*\
| =========                 |                                                 |
| \\      /  F ield         | OpenFOAM: The Open Source CFD Toolbox           |
|  \\    /   O peration     | Version:  4.1                                   |
|   \\  /    A nd           | Web:      www.OpenFOAM.org                      |
|    \\/     M anipulation  |                                                 |
\*---------------------------------------------------------------------------*/
FoamFile
{
    version     2.0;
    format      ascii;
    class       volVectorField;
    location    "67";
    object      U;
}
// * * * * * * * * * * * * * * * * * * * * * * * * * * * * * * * * * * * * * //

dimensions      [0 1 -1 0 0 0 0];

internalField   nonuniform List<vector> 
4432
(
(-144475 -3955.41 -165.844)
(-151011 -4053.64 -750.565)
(-152163 -3728.67 -588.757)
(-153909 -4002.13 -1232.94)
(-155734 -3988.73 -1503.7)
(-157368 -3967.28 -1629.61)
(-158678 -3979.19 -1860.23)
(-159918 -3967.09 -2049.67)
(-161047 -3953.56 -2250.03)
(-162070 -3942.89 -2467.93)
(-162965 -3935.58 -2706.72)
(-163709 -3928.81 -2975.94)
(-164271 -3922.58 -3278.16)
(-164621 -3919.67 -3608.5)
(-164741 -3919.73 -3958.89)
(-164598 -3920.95 -4323.85)
(-164168 -3921.93 -4706.45)
(-163436 -3921.21 -5105.32)
(-162386 -3922.5 -5523.18)
(-161008 -3925.37 -5950.18)
(-159302 -3930.93 -6379.97)
(-157283 -3937.16 -6800.75)
(-154980 -3942.91 -7203.25)
(-152426 -3945.93 -7578.87)
(-149672 -3943.92 -7919)
(-146771 -3935.05 -8218.35)
(-143792 -3917.1 -8472.37)
(-140796 -3888.38 -8679.97)
(-137851 -3846.94 -8840.4)
(-135006 -3791.6 -8954.89)
(-132317 -3721.3 -9024.21)
(-129831 -3635.64 -9049.73)
(-127583 -3534.7 -9034.3)
(-125619 -3419.68 -8979.65)
(-123970 -3293.74 -8888.42)
(-122665 -3162.58 -8771.33)
(-121733 -3041.39 -8643.82)
(-121167 -2949 -8527.24)
(-120958 -2901.64 -8425.41)
(-121074 -2920.17 -8316.34)
(-121525 -3012.05 -8172.42)
(-122313 -3184.3 -7959.43)
(-123414 -3449.25 -7613.51)
(-124841 -3827.99 -7024.64)
(-126911 -4312.94 -6038.41)
(-130435 -4857.53 -4481.75)
(-135863 -5382.56 -2153.52)
(-140942 -5839.8 1245.85)
(-140680 -6005.85 6693.32)
(-137606 -5023.94 14480.4)
(-154603 -1857.27 26490.7)
(-221825 4013.45 36882.1)
(-269863 -3665.36 63407.1)
(-193894 5033.75 40824.4)
(-195774 3637.44 994.897)
(-199522 3605.31 455.161)
(-200984 3829.92 205.812)
(-202568 3596.57 -37.6995)
(-203966 3585.08 -282.36)
(-205371 3572 -400.589)
(-206528 3529.57 -576.204)
(-207604 3504.16 -727.749)
(-208608 3477.07 -892.584)
(-209521 3445.47 -1066.01)
(-210318 3409 -1256.26)
(-210976 3369.82 -1470.04)
(-211480 3328.6 -1707)
(-211819 3284.8 -1961.27)
(-212000 3240.75 -2229.71)
(-211994 3198.54 -2513.86)
(-211789 3159.45 -2812.13)
(-211366 3125.79 -3119.71)
(-210716 3097.6 -3433.07)
(-209830 3075.79 -3745.51)
(-208712 3060.47 -4049.87)
(-207379 3054.06 -4337.93)
(-205855 3058.07 -4602.32)
(-204169 3075.39 -4837.23)
(-202360 3108.06 -5038.35)
(-200469 3158.49 -5204.22)
(-198542 3228.39 -5335.1)
(-196616 3320.07 -5433.55)
(-194735 3435.04 -5503.21)
(-192927 3575.14 -5548.48)
(-191222 3741.59 -5574.05)
(-189644 3935.26 -5584.03)
(-188212 4156.97 -5582.45)
(-186952 4405.9 -5572.03)
(-185880 4680.15 -5555.73)
(-185020 4975.71 -5535.66)
(-184403 5282.94 -5513.6)
(-184074 5592.08 -5490.6)
(-184109 5901.75 -5470.28)
(-184595 6218.44 -5442.46)
(-185621 6544.76 -5387.82)
(-187286 6881.95 -5284.41)
(-189672 7230.63 -5105.43)
(-192901 7593.54 -4797.44)
(-197339 7993.87 -4275.85)
(-203641 8467.15 -3433.35)
(-212263 9061.58 -2135.19)
(-222044 9831.75 -162.081)
(-229830 10954 3043.55)
(-237957 13068 7288.06)
(-265158 16275.9 14120)
(-356190 19239.8 20257.1)
(-451780 8596.14 33954.3)
(-408826 -29093.2 64712.6)
(-268536 -1796.37 6446.27)
(-269678 -1838.71 5530.49)
(-270373 -1901.48 5558.66)
(-271042 -1839.8 5126.05)
(-271500 -1842.09 4909.12)
(-272113 -1832.12 4860.33)
(-272652 -1825.51 4803.02)
(-273144 -1814.47 4770.59)
(-273644 -1808.9 4734.88)
(-274137 -1804.4 4692.87)
(-274616 -1805.98 4637.28)
(-275073 -1811.87 4557.94)
(-275488 -1820.42 4452.84)
(-275851 -1831.36 4323.51)
(-276171 -1845.63 4172.22)
(-276436 -1867.14 3997.13)
(-276616 -1892.47 3798.5)
(-276726 -1918.43 3589.42)
(-276775 -1944.09 3379.06)
(-276764 -1970.41 3175.87)
(-276699 -1996.93 2989.71)
(-276590 -2023.58 2834.64)
(-276454 -2049.57 2721.67)
(-276299 -2073.69 2659.41)
(-276142 -2094.73 2653.43)
(-275984 -2111.78 2703.99)
(-275837 -2123.68 2809.11)
(-275697 -2129.28 2962.15)
(-275565 -2127.14 3155.99)
(-275425 -2115.93 3381)
(-275269 -2094.29 3629.09)
(-275074 -2060.51 3892.53)
(-274819 -2012.41 4165.67)
(-274480 -1947.66 4443.3)
(-274023 -1864.8 4720.12)
(-273419 -1759.29 4993.17)
(-272700 -1626.89 5271.27)
(-271858 -1467.16 5551.55)
(-270890 -1284.41 5829.97)
(-269769 -1078.39 6092.59)
(-268452 -844.001 6323.72)
(-266856 -578.213 6520.15)
(-264881 -280.802 6690.53)
(-262412 50.6883 6845.25)
(-259410 423.729 6994.49)
(-255946 851.448 7112.09)
(-251881 1335.43 7104.56)
(-245822 1877.9 7001.76)
(-236173 2544.32 7068.86)
(-222638 3536.75 7632.48)
(-220415 4588.03 7737.25)
(-216163 4575.68 6201.3)
(-223073 -979.338 391.002)
(48791.2 -11901.5 6019.34)
(-307690 2348.81 3800.47)
(-308006 2227.24 2926.25)
(-308116 2132.51 2600.22)
(-308228 2147.21 2367.96)
(-308311 2115.67 2109.68)
(-308496 2095.5 1988.98)
(-308641 2074.47 1878.83)
(-308766 2059.64 1784.14)
(-308923 2041.42 1680.76)
(-309096 2024.23 1574.37)
(-309284 2003.9 1456.72)
(-309479 1982.32 1320.34)
(-309673 1960.63 1164.07)
(-309860 1938.54 990.883)
(-310053 1913.09 802.349)
(-310240 1881.25 594.844)
(-310411 1846.04 373.909)
(-310569 1808.9 144.344)
(-310708 1769.35 -89.498)
(-310831 1726.28 -318.141)
(-310943 1680.06 -529.875)
(-311055 1631.05 -712.184)
(-311185 1580.46 -853.22)
(-311344 1529.61 -943.731)
(-311546 1479.69 -977.357)
(-311796 1431.96 -952.611)
(-312104 1387.48 -870.878)
(-312464 1347.65 -737.353)
(-312876 1313.74 -558.241)
(-313320 1287.17 -341.438)
(-313783 1269.08 -93.9528)
(-314235 1261.08 177.519)
(-314647 1265.04 467.49)
(-314986 1282.94 771.347)
(-315208 1316.2 1084.4)
(-315270 1368.45 1402.96)
(-315122 1442.77 1721.03)
(-314713 1538.04 2034.68)
(-313996 1651.03 2339.36)
(-312977 1781.01 2630.04)
(-311606 1931.99 2891.5)
(-309806 2105.21 3122.34)
(-307482 2297.54 3334.05)
(-304577 2516.85 3535.23)
(-301053 2764.01 3752.53)
(-296995 3048.94 3979.57)
(-292203 3361.35 4174.19)
(-285363 3708.97 4407.26)
(-274671 4189.82 4928.35)
(-259921 4931.91 6116.15)
(-252285 4809.62 8563.86)
(-244392 6440.54 6768.51)
(-193861 -16294 8509.81)
(-11926.4 -10394.6 3345.51)
(-233485 -1922.59 1656)
(-231958 -1959.71 488.036)
(-231853 -2138.94 81.7064)
(-231674 -2055.16 -137.062)
(-231501 -2069.23 -439.874)
(-231469 -2090.75 -647.01)
(-231488 -2111.85 -785.218)
(-231540 -2125.44 -919.729)
(-231613 -2146.12 -1061.07)
(-231698 -2166.16 -1213.76)
(-231786 -2188.89 -1391.89)
(-231867 -2210.88 -1603.07)
(-231916 -2232.69 -1851.79)
(-231921 -2255.23 -2142.96)
(-231871 -2280.07 -2480.87)
(-231735 -2307.99 -2870.38)
(-231498 -2335.82 -3297.81)
(-231126 -2367.5 -3754.32)
(-230582 -2401.93 -4232.89)
(-229855 -2436.79 -4724.44)
(-228951 -2470 -5210.79)
(-227891 -2501.45 -5672.48)
(-226708 -2529.24 -6089.5)
(-225443 -2551.97 -6446.15)
(-224145 -2568.89 -6732.21)
(-222864 -2580.23 -6945.38)
(-221651 -2586.68 -7087.9)
(-220554 -2588.99 -7168.53)
(-219610 -2587.7 -7197.49)
(-218846 -2582.96 -7187.45)
(-218282 -2574.73 -7148.41)
(-217925 -2563.12 -7086.18)
(-217782 -2548.68 -6999.75)
(-217853 -2531.61 -6887.98)
(-218127 -2512.6 -6749.15)
(-218602 -2493.54 -6576.8)
(-219161 -2476.61 -6378.81)
(-219758 -2455.78 -6164.4)
(-220335 -2424.85 -5938.83)
(-220839 -2383.5 -5701.95)
(-221213 -2337.75 -5455.03)
(-221418 -2292.78 -5177.95)
(-221330 -2253.07 -4854.89)
(-220824 -2212.96 -4467.61)
(-219885 -2159.12 -4006.11)
(-218737 -2062.56 -3499.64)
(-217279 -1877.52 -3064.97)
(-213568 -1482.16 -2944.61)
(-202944 -497.039 -3434.69)
(-186890 1911.74 -2826.4)
(-182166 5728.88 1639.65)
(-221158 10619.8 10141.9)
(-241626 -9992.33 22697.9)
(-153221 668.558 8357.29)
(-259347 3610.56 2055.12)
(-258463 3658.18 1141.04)
(-258192 3523.89 877.117)
(-257954 3634 684.327)
(-257920 3650.41 450.64)
(-257956 3655.47 268.059)
(-258043 3658.1 157.708)
(-258186 3664.5 41.2492)
(-258382 3661.48 -83.6896)
(-258612 3655.66 -221.845)
(-258877 3643.98 -383.697)
(-259166 3629.23 -577.007)
(-259453 3610.84 -809.785)
(-259721 3588.32 -1090.4)
(-259940 3561.42 -1424.85)
(-260101 3529.2 -1810.26)
(-260172 3494.64 -2237.52)
(-260128 3455.25 -2696.02)
(-259971 3412.52 -3173.12)
(-259693 3368.79 -3657.68)
(-259297 3326.27 -4133.16)
(-258798 3285.44 -4580.12)
(-258218 3248.46 -4979.96)
(-257586 3216.99 -5318.66)
(-256933 3192.17 -5588.07)
(-256294 3174.32 -5788.04)
(-255705 3163.38 -5923.27)
(-255198 3159.36 -6004.31)
(-254801 3162.46 -6042.3)
(-254534 3173.32 -6049.53)
(-254416 3192.78 -6035.38)
(-254454 3221.67 -6007.12)
(-254661 3260.43 -5967.24)
(-255039 3309.98 -5914.51)
(-255594 3370.91 -5845.27)
(-256332 3440.19 -5753.95)
(-257254 3517.78 -5636.08)
(-258368 3608.73 -5487.94)
(-259667 3723.65 -5312.1)
(-261069 3868.11 -5114.06)
(-262578 4040.75 -4889.89)
(-264202 4243.43 -4635.07)
(-265909 4480.78 -4350.38)
(-267659 4762.49 -4037.31)
(-269562 5110.49 -3698.99)
(-271957 5566.4 -3381.69)
(-275008 6193.35 -3185.34)
(-277389 7103.92 -3198.5)
(-275667 8595.77 -3255.55)
(-271826 11182.7 -1931.16)
(-284595 14488.6 3489.82)
(-359589 15694 13793.4)
(-409039 -5829.36 17566.6)
(-472974 -53785.6 14682.8)
(-256975 -2963.3 4060.12)
(-257443 -2995.38 3890.9)
(-257674 -2981.72 3711.77)
(-258064 -2946.14 3760.08)
(-258498 -2924.69 3747.44)
(-258918 -2919.52 3745.81)
(-259350 -2902.72 3751.71)
(-259799 -2886.1 3755.54)
(-260262 -2873.79 3742.02)
(-260725 -2861.63 3698.16)
(-261176 -2852.6 3613.39)
(-261597 -2844.96 3485.73)
(-261960 -2840.54 3304.29)
(-262244 -2841.31 3059.84)
(-262425 -2849.75 2750.21)
(-262499 -2865.89 2389.74)
(-262468 -2887.89 1994.41)
(-262324 -2911.57 1574.98)
(-262063 -2935.19 1151.81)
(-261677 -2958.09 745.25)
(-261167 -2979.93 380.604)
(-260548 -2998.44 84.5839)
(-259845 -3011.67 -115.553)
(-259091 -3017.35 -201.348)
(-258320 -3014.02 -167.093)
(-257565 -3000.97 -20.3082)
(-256855 -2978.02 221.383)
(-256213 -2944.87 534.089)
(-255652 -2900.69 892.157)
(-255172 -2843.99 1271.27)
(-254765 -2773.26 1651.71)
(-254411 -2688.55 2018.69)
(-254092 -2590.44 2363.2)
(-253783 -2476.37 2678.92)
(-253451 -2342.91 2960.91)
(-253061 -2193.12 3203.19)
(-252573 -2028.08 3405.55)
(-251952 -1849.16 3578.58)
(-251186 -1655.94 3733.51)
(-250263 -1447.37 3879.35)
(-249143 -1227.26 4030.05)
(-247743 -1007.25 4185.08)
(-245955 -803.216 4347.56)
(-243685 -626.155 4525.73)
(-240976 -480.763 4721.08)
(-238069 -367.869 4930.13)
(-234953 -285.199 5139.55)
(-230123 -153.29 5188.92)
(-221062 279.346 4921.75)
(-208678 1217.78 4705.92)
(-205334 2120.87 5271.7)
(-202530 4762.52 -527.403)
(-214005 -5125.18 8696.66)
(26900.3 -12956.3 10921.9)
(-262829 3439.89 4362.12)
(-262903 3379.97 3981.05)
(-262934 3358.34 3886.63)
(-263123 3363.03 3770.71)
(-263410 3349.93 3670.33)
(-263661 3319.11 3581.02)
(-263908 3298.6 3498.03)
(-264187 3277.56 3404.77)
(-264484 3252.01 3303.71)
(-264784 3226.3 3177.08)
(-265085 3197.87 3015.12)
(-265371 3168.66 2813.13)
(-265623 3137.34 2563.23)
(-265829 3102.4 2257.38)
(-265980 3061.41 1897.97)
(-266071 3014.5 1498.71)
(-266124 2963.38 1068.27)
(-266161 2911.19 619.466)
(-266168 2859.61 167.378)
(-266150 2810.29 -269.544)
(-266116 2764.54 -669.542)
(-266082 2724.78 -1007.01)
(-266071 2693.2 -1256.71)
(-266110 2672.36 -1400.17)
(-266221 2664.15 -1430.59)
(-266423 2669.65 -1353.4)
(-266725 2689.32 -1183.38)
(-267129 2723.46 -941.1)
(-267627 2772.71 -648.206)
(-268203 2838.34 -324.974)
(-268837 2921.82 11.9991)
(-269505 3023.01 349.82)
(-270183 3141.3 680.953)
(-270847 3279.07 1001.14)
(-271475 3439.54 1308.26)
(-272046 3619.93 1600.86)
(-272539 3819.96 1879.31)
(-272941 4038.86 2146.15)
(-273252 4275.33 2401.81)
(-273463 4527.31 2656.07)
(-273575 4788.23 2913.63)
(-273543 5046.2 3165.79)
(-273328 5289.96 3404.27)
(-272917 5507.21 3631.02)
(-272399 5691.48 3823.4)
(-272069 5839.63 3945.22)
(-271970 5942.87 3920.85)
(-270644 6073.59 3506.91)
(-265069 6381.58 2382.81)
(-255089 6977.41 538.666)
(-252654 6973.97 -2073.36)
(-262353 8432.91 -9270.71)
(-227988 -28168.4 13523.3)
(-124225 -23827.6 7608.19)
(-243264 -2955.5 1061.82)
(-243112 -3022.06 765.355)
(-243107 -2989.01 652.374)
(-243157 -2962.28 537.167)
(-243316 -2947.96 480.743)
(-243507 -2943.46 441.889)
(-243737 -2940.72 407.51)
(-244000 -2941.57 361.183)
(-244297 -2941.36 295.435)
(-244611 -2939 187.911)
(-244929 -2937.57 23.1914)
(-245242 -2937.5 -198.098)
(-245533 -2936.77 -486.663)
(-245787 -2935.78 -854.545)
(-245985 -2932.55 -1305.64)
(-246103 -2926.25 -1828.09)
(-246101 -2921.27 -2420.71)
(-245962 -2921.72 -3068.09)
(-245668 -2929.41 -3748.17)
(-245201 -2944.15 -4433.97)
(-244550 -2967.49 -5094.98)
(-243719 -2999.84 -5689.99)
(-242731 -3040.8 -6173.04)
(-241625 -3088.58 -6505.35)
(-240450 -3141.07 -6668.69)
(-239256 -3196.22 -6666.36)
(-238087 -3252.03 -6518.22)
(-236979 -3306.1 -6252.22)
(-235955 -3355.28 -5898.04)
(-235027 -3396.29 -5481.4)
(-234192 -3426.5 -5021.52)
(-233444 -3445.18 -4533.95)
(-232773 -3451.31 -4029.63)
(-232167 -3442.72 -3513.55)
(-231611 -3416.33 -2986.45)
(-231087 -3371.09 -2455.67)
(-230576 -3305.8 -1927.75)
(-230053 -3221.26 -1402.02)
(-229444 -3123.33 -887.977)
(-228659 -3011.73 -417.395)
(-227645 -2885.27 -13.6443)
(-226320 -2756.42 298.186)
(-224559 -2635.37 484.521)
(-222232 -2530.73 495.983)
(-219325 -2454.04 266.688)
(-216032 -2420.71 -283.576)
(-212294 -2472.99 -1284.76)
(-206356 -2588 -2842.13)
(-194680 -2733.58 -5117.69)
(-177782 -2982.93 -8556.82)
(-169311 -4316.64 -14368.2)
(-173444 -2862.81 -12411.3)
(-216868 -16396.2 -200.921)
(19816.1 -10803.3 -21067.7)
(-232454 3037.4 2139.01)
(-231690 2958.06 1744.61)
(-231433 2985.84 1603.63)
(-231233 3008.77 1416.18)
(-231204 3017.82 1312.46)
(-231193 3016.53 1257.66)
(-231230 3012.52 1204.18)
(-231309 3004.16 1139.89)
(-231430 2996.22 1065.29)
(-231584 2989.89 957.169)
(-231761 2981.98 804.59)
(-231947 2972.13 600.505)
(-232125 2962.71 334.027)
(-232280 2954 -6.85151)
(-232389 2947.85 -424.928)
(-232410 2944.58 -913.453)
(-232282 2940.41 -1467.88)
(-231950 2931.84 -2078.52)
(-231395 2917.19 -2721.31)
(-230595 2896.78 -3368.15)
(-229540 2869.42 -3987.57)
(-228238 2834.62 -4539.47)
(-226723 2792.6 -4977.37)
(-225052 2745.21 -5262.89)
(-223299 2694.63 -5378.76)
(-221543 2643.02 -5330.84)
(-219856 2592.46 -5142.33)
(-218296 2545.5 -4845.16)
(-216901 2505.43 -4473.07)
(-215694 2476.14 -4055.73)
(-214677 2461.11 -3615.37)
(-213843 2462.69 -3168.7)
(-213174 2481.85 -2726.26)
(-212652 2520.98 -2295.13)
(-212252 2583.41 -1879.7)
(-211948 2670.19 -1483.5)
(-211714 2781.62 -1110.01)
(-211518 2913.42 -763.781)
(-211326 3057.63 -457.728)
(-211132 3216.1 -197.591)
(-210854 3386.24 11.3198)
(-210412 3555.28 153.183)
(-209755 3711.39 219.6)
(-208817 3840.44 180.477)
(-207700 3924 -7.44539)
(-206810 3938.19 -394.127)
(-206273 3820.73 -1068.5)
(-204428 3560.6 -2222.07)
(-197180 3208.81 -4461.52)
(-185300 2416.61 -8303.04)
(-182337 -509.908 -13032.7)
(-213882 -2879.35 -11150.5)
(-193953 -22653.5 -24031)
(-55794 -11997.3 -10394.2)
(-234002 -1826.93 3479.09)
(-233924 -1839.11 3381.22)
(-234054 -1815.61 3399.48)
(-234254 -1800.14 3385.92)
(-234560 -1787.21 3403.54)
(-234923 -1767.56 3418.37)
(-235347 -1744.79 3428.54)
(-235828 -1726.8 3424.84)
(-236375 -1710.23 3398.37)
(-236981 -1690.45 3328.71)
(-237617 -1665.62 3199.26)
(-238266 -1641.51 2996.16)
(-238913 -1619.66 2705.01)
(-239534 -1602.49 2311.87)
(-240104 -1591.82 1817.26)
(-240600 -1589.99 1230.93)
(-241005 -1598.29 571.62)
(-241305 -1618.63 -132.149)
(-241490 -1649.74 -849.29)
(-241551 -1690.57 -1549.15)
(-241482 -1740.46 -2198.92)
(-241288 -1799.28 -2750.79)
(-241005 -1865.31 -3143.44)
(-240692 -1936.07 -3324.84)
(-240416 -2008.95 -3277.59)
(-240230 -2082.38 -3022.28)
(-240167 -2155.44 -2602.55)
(-240234 -2227.48 -2070.16)
(-240419 -2297.47 -1473)
(-240697 -2364.13 -848.169)
(-241034 -2426.77 -220.652)
(-241396 -2484.89 393.831)
(-241754 -2538.01 986.547)
(-242081 -2585.79 1555.66)
(-242355 -2628.97 2104.16)
(-242562 -2668.28 2633.74)
(-242690 -2703.41 3149.48)
(-242761 -2733.31 3659.57)
(-242815 -2759.42 4174.99)
(-242874 -2787.17 4699.82)
(-242945 -2819.5 5233.61)
(-243028 -2853.54 5770.19)
(-243105 -2887.62 6295.65)
(-243183 -2918.73 6786.42)
(-243427 -2940.45 7206.05)
(-244279 -2946.7 7497.18)
(-245978 -2912.07 7544.91)
(-247475 -2817.85 7140.83)
(-245387 -2616.5 5756.15)
(-239248 -2112.04 2326.47)
(-235546 -590.589 -5172.37)
(-266409 -902.122 -10940.9)
(-201155 -11515.3 -59537.3)
(-87256.7 -10578.4 -28322.2)
(-244928 3436.44 3372.04)
(-245300 3443.87 3412.04)
(-245558 3463.02 3403.84)
(-245958 3479.83 3372.33)
(-246412 3490.27 3386.16)
(-246892 3505.01 3415.28)
(-247417 3520.6 3442)
(-247973 3529.53 3451.05)
(-248554 3534.92 3428.34)
(-249150 3541.29 3357.58)
(-249740 3550.66 3224)
(-250299 3558.02 3011.21)
(-250805 3562.47 2702.97)
(-251230 3562.52 2285.9)
(-251540 3557.63 1754.07)
(-251707 3547.37 1111.79)
(-251706 3530.86 379.663)
(-251551 3507.08 -409.52)
(-251251 3477.24 -1220.72)
(-250828 3441.41 -2022.75)
(-250270 3400.21 -2780.89)
(-249580 3353.27 -3444.59)
(-248784 3301.29 -3948.34)
(-247933 3245.54 -4235.3)
(-247091 3187.68 -4283.06)
(-246313 3129.16 -4107.5)
(-245641 3071.63 -3749.79)
(-245098 3017.11 -3261.56)
(-244692 2967.9 -2693.5)
(-244421 2926.49 -2087.46)
(-244274 2894.57 -1473.56)
(-244238 2873.11 -871.445)
(-244300 2862.97 -293.073)
(-244452 2864.63 255.68)
(-244685 2877.34 773.122)
(-244996 2900.33 1257.57)
(-245383 2934.08 1704.68)
(-245847 2980.74 2109.27)
(-246394 3037.56 2463.53)
(-247040 3098.7 2757.4)
(-247821 3164.4 3003.9)
(-248788 3237.29 3208.53)
(-249936 3318.59 3365.12)
(-251312 3410.83 3458.24)
(-253141 3521.04 3473.8)
(-255939 3658.88 3401.68)
(-260080 3847.02 3212.91)
(-264585 4101.68 2737.39)
(-266516 4392.16 1302.75)
(-266578 4727.33 -2140.8)
(-276287 4956.94 -8194.05)
(-324635 2192.88 -15853.4)
(-352209 -13877.9 -53712.4)
(-295559 -15491 -9467.24)
(-218469 -847.265 -662.931)
(-218439 -675.56 -592.941)
(-218714 -628.349 -537.718)
(-219036 -564.699 -484.323)
(-219503 -502.256 -423.775)
(-220045 -429.882 -362.536)
(-220660 -358.543 -305.795)
(-221342 -296.584 -264.075)
(-222101 -245.158 -256.846)
(-222919 -199.521 -298.11)
(-223766 -161.85 -397.392)
(-224616 -135.879 -580.11)
(-225437 -122.572 -866.269)
(-226191 -123.339 -1270.21)
(-226826 -138.813 -1799.96)
(-227277 -167.465 -2458.56)
(-227493 -207.043 -3232.43)
(-227433 -254.104 -4093.1)
(-227070 -306.825 -5000.99)
(-226383 -368.323 -5918.99)
(-225343 -438.962 -6808.47)
(-223933 -517.33 -7606.56)
(-222186 -599.454 -8207.31)
(-220219 -678.961 -8501.37)
(-218199 -748.987 -8442.58)
(-216283 -803.889 -8063.45)
(-214590 -841.343 -7439.65)
(-213185 -862.085 -6657.43)
(-212090 -869.333 -5794.66)
(-211287 -867.479 -4910.81)
(-210740 -861.105 -4046.44)
(-210404 -854.087 -3226.99)
(-210231 -849.575 -2467.11)
(-210174 -849.829 -1774.67)
(-210192 -856.755 -1154.98)
(-210249 -873.353 -611.313)
(-210317 -907.042 -135.412)
(-210341 -959.166 273.935)
(-210286 -1022.52 607.099)
(-210154 -1093.82 861.877)
(-209953 -1172.63 1055.04)
(-209682 -1257.3 1188.5)
(-209324 -1344.39 1271.72)
(-208888 -1430.23 1328)
(-208573 -1501.05 1391.01)
(-208931 -1519.87 1503.66)
(-210498 -1408.73 1755.1)
(-212405 -1025.95 2190.2)
(-211626 -266.775 2672.9)
(-209756 806.51 2623.8)
(-223842 4021.15 298.958)
(-284243 6676 -6501.74)
(-327929 -6757.09 -39720.7)
(-231914 12846.3 -12966.2)
(-233470 4237.38 4086.66)
(-232828 4274.54 4227.97)
(-232533 4244.99 4247.61)
(-232210 4219.12 4267.06)
(-231963 4191.16 4300.72)
(-231751 4169.68 4336.55)
(-231583 4145.73 4359.89)
(-231453 4111.38 4365.02)
(-231362 4065.67 4332.69)
(-231308 4013.93 4247.16)
(-231281 3955.68 4093.13)
(-231275 3888.67 3849.73)
(-231275 3813.63 3496.7)
(-231265 3731.59 3018.74)
(-231222 3644.19 2407.82)
(-231114 3554.82 1662.96)
(-230913 3467.72 796.483)
(-230585 3387.8 -161.165)
(-230086 3320.72 -1176.97)
(-229365 3269.22 -2227.22)
(-228398 3236.35 -3274.88)
(-227177 3222.73 -4258.87)
(-225747 3229.68 -5075.43)
(-224222 3257.39 -5613.59)
(-222757 3303.58 -5819.96)
(-221485 3364.33 -5714.81)
(-220490 3434.57 -5359.8)
(-219809 3509.84 -4828.49)
(-219438 3586.69 -4188.13)
(-219353 3663.42 -3489.93)
(-219518 3739.97 -2767.05)
(-219898 3817.86 -2037.84)
(-220466 3900.12 -1311.67)
(-221195 3990.5 -590.907)
(-222072 4092.21 127.667)
(-223089 4209 843.5)
(-224246 4342.6 1559.14)
(-225574 4496.05 2291.98)
(-227096 4676.19 3048.66)
(-228841 4888.77 3836.07)
(-230848 5137.75 4673.97)
(-233146 5432.42 5574.69)
(-235754 5783.72 6547.04)
(-238733 6206 7604.63)
(-242335 6724.36 8767.49)
(-247153 7388.67 10074.1)
(-253729 8286.32 11587.4)
(-261209 9542.3 13209.8)
(-266825 11231 14345.5)
(-271540 13478.4 13753.6)
(-298527 17015.8 12451.8)
(-375198 19488.9 14556.5)
(-489029 4237.34 -7403.78)
(-415993 36150.5 -121607)
(-238358 -1061.62 -513.134)
(-238312 -854.82 -209.394)
(-238497 -767.839 -44.0287)
(-238745 -678.372 135.724)
(-239093 -583.754 307.801)
(-239510 -482.905 481.758)
(-239999 -388.638 647.255)
(-240568 -304.117 779.197)
(-241223 -226.75 853.585)
(-241939 -153.697 853.702)
(-242692 -89.0194 755.364)
(-243462 -34.2994 529.336)
(-244216 10.3489 148.433)
(-244911 45.6493 -410.896)
(-245494 73.381 -1163.4)
(-245902 95.5542 -2110.94)
(-246072 114.199 -3238.11)
(-245950 132.668 -4508.66)
(-245504 151.646 -5866.75)
(-244710 168.022 -7257.29)
(-243523 175.462 -8636.37)
(-241870 164.837 -9931.88)
(-239729 125.277 -10984.9)
(-237209 44.7521 -11601.4)
(-234510 -83.7306 -11701.4)
(-231817 -257.124 -11361.4)
(-229242 -463.571 -10724)
(-226839 -688.918 -9929.27)
(-224625 -920.51 -9093.36)
(-222592 -1149.39 -8295.65)
(-220722 -1369.79 -7582.97)
(-218997 -1578.5 -6978.18)
(-217404 -1775.14 -6488.01)
(-215930 -1959.68 -6109.85)
(-214570 -2130.86 -5838.45)
(-213325 -2288.99 -5667.63)
(-212203 -2436.8 -5592.66)
(-211216 -2577.96 -5607.2)
(-210381 -2713.8 -5702.36)
(-209721 -2844.71 -5873.73)
(-209250 -2981.43 -6127.38)
(-208973 -3132.93 -6459.83)
(-208882 -3309.41 -6870.36)
(-208991 -3528.95 -7346.77)
(-209484 -3818.73 -7863.17)
(-210896 -4205.65 -8382.62)
(-213820 -4718.16 -8780.7)
(-217443 -5396.55 -8882.16)
(-218375 -6320.77 -8231.95)
(-218204 -7677.24 -6706.7)
(-237104 -7877.71 -2132.04)
(-331223 -12652.5 7183.06)
(-499805 59.4757 28309.4)
(-362900 18473.1 6358.09)
(-233655 1634.66 5180.03)
(-233529 1608.95 5453.9)
(-233582 1575.09 5644.7)
(-233693 1521.5 5836.85)
(-233874 1479.57 6034.75)
(-234141 1447.76 6231.97)
(-234499 1415.25 6414.68)
(-234946 1379.32 6567.64)
(-235485 1343.65 6672)
(-236106 1313.26 6703.74)
(-236791 1286.56 6635.11)
(-237522 1263.52 6435.25)
(-238264 1245.6 6073.22)
(-238974 1234.34 5521.51)
(-239589 1231.33 4760.03)
(-240041 1238.09 3781.75)
(-240253 1255.2 2597.38)
(-240160 1282.81 1244.66)
(-239705 1317.04 -214.388)
(-238835 1353.18 -1728.34)
(-237448 1380.59 -3236.02)
(-235460 1395.3 -4657.47)
(-232850 1394.43 -5821.5)
(-229766 1377.67 -6516.4)
(-226495 1350.19 -6648.99)
(-223330 1322.37 -6294.56)
(-220470 1306.01 -5600.72)
(-218015 1309.83 -4715.66)
(-215993 1338.92 -3761.96)
(-214379 1394.89 -2823.27)
(-213126 1477.23 -1948.73)
(-212182 1584.37 -1163.15)
(-211496 1712.87 -475.567)
(-211024 1859.16 115.516)
(-210726 2019.64 620.543)
(-210570 2191.13 1038.6)
(-210501 2383.22 1395.58)
(-210494 2593.87 1696.74)
(-210546 2823.35 1950.41)
(-210657 3069.94 2163.82)
(-210836 3329.2 2346.7)
(-211077 3591.03 2503.87)
(-211355 3840.7 2632.93)
(-211665 4054.31 2722.4)
(-212157 4196.22 2757.68)
(-213240 4227.68 2740.2)
(-215200 4101.73 2693.07)
(-216878 3740.65 2593.96)
(-215047 3030.02 2802.39)
(-210927 1799.37 3829.16)
(-222398 1740.85 7485.44)
(-283164 3787.57 10366.5)
(-331547 5506.28 47234.1)
(-297148 9495.7 26269.1)
(-247063 -1553.91 -453.47)
(-246973 -1519.41 -162.75)
(-247032 -1507.7 -3.75648)
(-247178 -1506.38 177.911)
(-247397 -1494.63 356.928)
(-247678 -1484.23 530.804)
(-248036 -1486.92 684.893)
(-248483 -1500.17 792.837)
(-249020 -1518.81 839.773)
(-249634 -1543.85 807.857)
(-250314 -1577.78 660.746)
(-251040 -1621.89 362.518)
(-251784 -1675.69 -121.649)
(-252497 -1736.46 -822.293)
(-253123 -1799.24 -1759.84)
(-253590 -1860.98 -2941.63)
(-253820 -1915.93 -4355.27)
(-253748 -1956.27 -5959.39)
(-253340 -1972.9 -7679.01)
(-252599 -1959.69 -9427.66)
(-251503 -1911.92 -11155.5)
(-249945 -1820.56 -12804.4)
(-247870 -1682.24 -14151.6)
(-245498 -1508.32 -14841.6)
(-243260 -1333.46 -14705.6)
(-241484 -1202.61 -13903.5)
(-240258 -1147.72 -12714.8)
(-239520 -1182.62 -11378.5)
(-239138 -1305.9 -10072.7)
(-238961 -1507.38 -8894.48)
(-238860 -1774.52 -7883.97)
(-238733 -2096.08 -7043.59)
(-238507 -2463.31 -6355.12)
(-238134 -2868.4 -5792.93)
(-237581 -3305.36 -5330.17)
(-236827 -3767.64 -4939.81)
(-235861 -4245.65 -4596.05)
(-234679 -4726.6 -4273.45)
(-233282 -5197.9 -3948.07)
(-231671 -5645.78 -3598.72)
(-229845 -6054.49 -3210.53)
(-227779 -6413.71 -2777.35)
(-225415 -6721.73 -2287.95)
(-222698 -6972.63 -1749.31)
(-219689 -7161.29 -1167.45)
(-216715 -7282.79 -547.885)
(-214078 -7343.93 101.762)
(-210547 -7404.41 719.818)
(-203340 -7673.35 1365.02)
(-189990 -7922.14 2561.42)
(-186486 -7882.22 9013.56)
(-208398 -496.713 22477.8)
(-233616 17868.1 69331)
(-160655 12302.9 23517.8)
(-249768 1762.38 5433.03)
(-250166 1887.33 5738.8)
(-250498 1974.43 5928.39)
(-250976 2060.96 6163.59)
(-251507 2166.13 6382.42)
(-252135 2280.8 6579.07)
(-252861 2394.26 6749.45)
(-253684 2508.67 6872.48)
(-254610 2628.91 6929.26)
(-255638 2753.89 6894.61)
(-256759 2879.92 6734.32)
(-257956 3003.76 6412.05)
(-259198 3121.71 5891.28)
(-260443 3229.39 5140.68)
(-261628 3322.33 4139.86)
(-262676 3396.77 2884.03)
(-263501 3450.23 1388.09)
(-264021 3481.95 -300.555)
(-264199 3496.88 -2104.67)
(-264024 3498.21 -3966.44)
(-263514 3491.97 -5862.13)
(-262521 3483.19 -7744.69)
(-260908 3472.45 -9390.64)
(-258786 3455.42 -10421.1)
(-256497 3420.91 -10615.3)
(-254373 3357.67 -10087.4)
(-252599 3262.69 -9100.34)
(-251247 3139.4 -7899.82)
(-250309 2996.66 -6680.54)
(-249722 2844.62 -5553.87)
(-249405 2691.22 -4569.18)
(-249274 2540.52 -3731.56)
(-249255 2392.49 -3035.29)
(-249289 2248.82 -2463.51)
(-249334 2111.34 -1989.74)
(-249358 1986.24 -1611.16)
(-249367 1875.43 -1310.41)
(-249325 1785.26 -1068.58)
(-249199 1721.19 -868.525)
(-248955 1689.12 -696.722)
(-248550 1693.24 -552.178)
(-247924 1737.23 -450.896)
(-247012 1830.67 -389.53)
(-245747 1971.92 -380.401)
(-244190 2162.84 -443.352)
(-242586 2408.48 -575.903)
(-241038 2693.46 -743.799)
(-238296 2970.4 -884.329)
(-231694 3064.86 -728.889)
(-219670 3286.6 -201.28)
(-214512 4844.62 3392.67)
(-210181 6488.11 8463.89)
(-182580 11431.6 51733.5)
(-57344.3 6399.96 26339.9)
(-249840 -3541.47 -1581.96)
(-249832 -3656.47 -1275.09)
(-249762 -3718.48 -1110.59)
(-249809 -3781.61 -892.077)
(-249893 -3847.45 -655.693)
(-250030 -3923.3 -410.562)
(-250237 -4009.71 -173.539)
(-250525 -4103.55 39.1607)
(-250897 -4204.24 208.891)
(-251358 -4313.84 304.354)
(-251910 -4430.92 281.683)
(-252544 -4553.7 90.1321)
(-253240 -4680.27 -325.641)
(-253950 -4810.98 -1021.12)
(-254603 -4946.44 -2039.11)
(-255106 -5084.34 -3399.34)
(-255349 -5222.54 -5093.6)
(-255215 -5359.88 -7078.2)
(-254614 -5494.84 -9256.88)
(-253525 -5627.4 -11493.7)
(-251900 -5762.08 -13733.5)
(-249447 -5897.39 -16010.4)
(-245777 -6016.92 -18102.4)
(-240986 -6086.25 -19361.1)
(-235823 -6065.92 -19286.8)
(-231093 -5948.01 -18094.5)
(-227129 -5758.02 -16373.5)
(-223951 -5543.71 -14529.6)
(-221426 -5356.32 -12816.9)
(-219383 -5220.95 -11345.7)
(-217669 -5146.86 -10147)
(-216161 -5130.73 -9209)
(-214766 -5161.61 -8505.37)
(-213422 -5233.64 -8004.15)
(-212076 -5345.61 -7670.38)
(-210686 -5495.31 -7470.41)
(-209217 -5678.17 -7372.24)
(-207642 -5887.87 -7344.23)
(-205939 -6117.69 -7351.53)
(-204087 -6359.69 -7356.07)
(-202066 -6602.45 -7312.63)
(-199840 -6830.88 -7167.85)
(-197356 -7026.02 -6860.95)
(-194573 -7165.31 -6317.89)
(-191598 -7219.29 -5451.47)
(-188799 -7152.63 -4176.92)
(-186443 -6928.18 -2412.65)
(-183165 -6551.06 49.8859)
(-175511 -6008.93 3113.6)
(-162405 -5103.34 7752.78)
(-159412 -2448.11 16869.6)
(-177201 4708.7 27083.6)
(-178990 29941.1 55815.2)
(-71186.6 12333.9 27900.1)
(-237841 3318.53 5244.05)
(-237790 3455.92 5806.38)
(-237914 3534.67 6129.9)
(-238083 3638.17 6557)
(-238335 3737.19 6985.08)
(-238655 3828.52 7431.67)
(-239056 3909.16 7892.78)
(-239555 3980.37 8347.79)
(-240165 4040.82 8772.65)
(-240899 4085.96 9135.91)
(-241768 4114.06 9393.79)
(-242770 4123.21 9492.82)
(-243894 4113.27 9372.99)
(-245106 4086.75 8976.11)
(-246356 4048.07 8255.42)
(-247576 4002.94 7184.52)
(-248683 3957.69 5760.08)
(-249587 3918.44 4019.04)
(-250234 3892.85 2064.19)
(-250664 3881.6 14.1159)
(-250945 3884.37 -2092.57)
(-250863 3900.28 -4336.27)
(-250097 3939.34 -6529.93)
(-248786 4023.39 -8052.48)
(-247529 4168.6 -8391.05)
(-246741 4359.66 -7684.74)
(-246428 4565.36 -6428.17)
(-246466 4754.73 -4973.4)
(-246727 4919.13 -3545.99)
(-247100 5053.8 -2248.92)
(-247529 5154.06 -1112.88)
(-248029 5223.91 -149.525)
(-248588 5276.04 618.806)
(-249153 5318.66 1226.2)
(-249683 5348.7 1705.23)
(-250153 5366.49 2079.48)
(-250541 5374.63 2364.23)
(-250819 5376.31 2565.7)
(-250958 5373.86 2687.97)
(-250921 5370.05 2730.95)
(-250659 5368.47 2690.55)
(-250102 5373.65 2562.9)
(-249154 5391.05 2344.85)
(-247717 5427.24 2043.84)
(-245819 5492.57 1683.97)
(-243694 5598.52 1317.47)
(-241455 5755.12 1010.83)
(-237944 5993.97 984.648)
(-230446 6321.13 1547.8)
(-218329 6999.47 3107.94)
(-213538 9017.08 5724.67)
(-220570 11984.4 2423.08)
(-211813 24297.3 -7483.2)
(18440.5 8376.24 29921)
(-247470 -4732.11 72.2173)
(-247168 -4901.26 576.692)
(-246951 -4956.89 835.101)
(-246824 -5031.6 1167.43)
(-246754 -5108.13 1495.11)
(-246772 -5182.7 1826.09)
(-246892 -5251.88 2138)
(-247135 -5316.2 2416.67)
(-247525 -5372.96 2632.69)
(-248082 -5418.77 2744.38)