/*--------------------------------*- C++ -*----------------------------------*\
| =========                 |                                                 |
| \\      /  F ield         | OpenFOAM: The Open Source CFD Toolbox           |
|  \\    /   O peration     | Version:  4.1                                   |
|   \\  /    A nd           | Web:      www.OpenFOAM.org                      |
|    \\/     M anipulation  |                                                 |
\*---------------------------------------------------------------------------*/
FoamFile
{
    version     2.0;
    format      ascii;
    class       volScalarField;
    location    "74";
    object      p;
}
// * * * * * * * * * * * * * * * * * * * * * * * * * * * * * * * * * * * * * //

dimensions      [0 2 -2 0 0 0 0];

internalField   nonuniform List<scalar> 
4432
(
-3.8375e+10
-3.85756e+10
-3.89704e+10
-3.89388e+10
-3.89972e+10
-3.91478e+10
-3.9252e+10
-3.93431e+10
-3.94248e+10
-3.95032e+10
-3.95793e+10
-3.96497e+10
-3.97084e+10
-3.97502e+10
-3.97743e+10
-3.97796e+10
-3.97615e+10
-3.97181e+10
-3.96494e+10
-3.95565e+10
-3.94412e+10
-3.93074e+10
-3.91594e+10
-3.90027e+10
-3.8842e+10
-3.86819e+10
-3.85259e+10
-3.83779e+10
-3.82414e+10
-3.81206e+10
-3.80195e+10
-3.79421e+10
-3.78906e+10
-3.78635e+10
-3.78543e+10
-3.78511e+10
-3.78391e+10
-3.78034e+10
-3.77343e+10
-3.76318e+10
-3.75072e+10
-3.73794e+10
-3.72716e+10
-3.72175e+10
-3.72854e+10
-3.75601e+10
-3.79547e+10
-3.78771e+10
-3.64144e+10
-3.41838e+10
-3.59339e+10
-4.70124e+10
-5.7646e+10
-2.8641e+10
-3.85722e+10
-3.86034e+10
-3.88348e+10
-3.89815e+10
-3.90212e+10
-3.91436e+10
-3.92561e+10
-3.93445e+10
-3.94238e+10
-3.95042e+10
-3.95839e+10
-3.96571e+10
-3.97173e+10
-3.97608e+10
-3.97868e+10
-3.97931e+10
-3.97756e+10
-3.97325e+10
-3.96646e+10
-3.95727e+10
-3.94586e+10
-3.9326e+10
-3.91791e+10
-3.90235e+10
-3.88635e+10
-3.8704e+10
-3.85482e+10
-3.84e+10
-3.82628e+10
-3.81408e+10
-3.80378e+10
-3.79576e+10
-3.79026e+10
-3.78711e+10
-3.78574e+10
-3.785e+10
-3.7834e+10
-3.77949e+10
-3.77226e+10
-3.76172e+10
-3.74902e+10
-3.73612e+10
-3.72538e+10
-3.7202e+10
-3.72742e+10
-3.75543e+10
-3.79432e+10
-3.77912e+10
-3.60161e+10
-3.29574e+10
-3.34985e+10
-4.52306e+10
-6.03606e+10
-3.5466e+10
-3.87412e+10
-3.8729e+10
-3.88573e+10
-3.90501e+10
-3.91015e+10
-3.91844e+10
-3.93045e+10
-3.93981e+10
-3.9482e+10
-3.95669e+10
-3.96498e+10
-3.97303e+10
-3.98004e+10
-3.98511e+10
-3.98797e+10
-3.98873e+10
-3.98719e+10
-3.98294e+10
-3.97598e+10
-3.96629e+10
-3.95405e+10
-3.93961e+10
-3.92346e+10
-3.90623e+10
-3.8885e+10
-3.87085e+10
-3.85367e+10
-3.83743e+10
-3.82243e+10
-3.80909e+10
-3.79775e+10
-3.78878e+10
-3.78241e+10
-3.77851e+10
-3.77645e+10
-3.77515e+10
-3.7732e+10
-3.76917e+10
-3.76208e+10
-3.75188e+10
-3.73958e+10
-3.72691e+10
-3.71585e+10
-3.70945e+10
-3.71471e+10
-3.74026e+10
-3.77281e+10
-3.73651e+10
-3.51811e+10
-3.19543e+10
-3.33754e+10
-4.61585e+10
-5.97441e+10
-3.59688e+10
-3.87404e+10
-3.87797e+10
-3.89221e+10
-3.90457e+10
-3.91098e+10
-3.91983e+10
-3.93182e+10
-3.94081e+10
-3.94923e+10
-3.95772e+10
-3.96621e+10
-3.97439e+10
-3.98137e+10
-3.9863e+10
-3.98908e+10
-3.98987e+10
-3.98828e+10
-3.98395e+10
-3.97694e+10
-3.96723e+10
-3.95497e+10
-3.9405e+10
-3.92432e+10
-3.90706e+10
-3.88929e+10
-3.87161e+10
-3.8544e+10
-3.83812e+10
-3.82306e+10
-3.80964e+10
-3.79823e+10
-3.78914e+10
-3.78259e+10
-3.77841e+10
-3.77604e+10
-3.77441e+10
-3.77209e+10
-3.76771e+10
-3.76028e+10
-3.74977e+10
-3.73717e+10
-3.72419e+10
-3.71278e+10
-3.70599e+10
-3.71092e+10
-3.73615e+10
-3.76743e+10
-3.7237e+10
-3.48154e+10
-3.13479e+10
-3.37227e+10
-4.94162e+10
-6.16258e+10
-2.96552e+10
-3.89881e+10
-3.89949e+10
-3.8937e+10
-3.90938e+10
-3.91713e+10
-3.92384e+10
-3.93285e+10
-3.94185e+10
-3.9506e+10
-3.95923e+10
-3.9677e+10
-3.9761e+10
-3.9835e+10
-3.98888e+10
-3.99211e+10
-3.99333e+10
-3.99236e+10
-3.98879e+10
-3.9825e+10
-3.97331e+10
-3.9612e+10
-3.9464e+10
-3.92942e+10
-3.91092e+10
-3.89162e+10
-3.87221e+10
-3.85321e+10
-3.83508e+10
-3.8182e+10
-3.80302e+10
-3.78988e+10
-3.77905e+10
-3.77057e+10
-3.76431e+10
-3.75974e+10
-3.75586e+10
-3.75142e+10
-3.74525e+10
-3.73664e+10
-3.72573e+10
-3.71354e+10
-3.70151e+10
-3.6913e+10
-3.68625e+10
-3.69506e+10
-3.72945e+10
-3.77681e+10
-3.75211e+10
-3.52569e+10
-3.18039e+10
-3.3329e+10
-4.63721e+10
-5.87859e+10
-2.95302e+10
-3.89211e+10
-3.89991e+10
-3.90408e+10
-3.90757e+10
-3.9156e+10
-3.92444e+10
-3.93363e+10
-3.94212e+10
-3.95097e+10
-3.95962e+10
-3.96817e+10
-3.97657e+10
-3.98398e+10
-3.98941e+10
-3.99273e+10
-3.99418e+10
-3.99333e+10
-3.98978e+10
-3.98342e+10
-3.97411e+10
-3.96182e+10
-3.94683e+10
-3.92964e+10
-3.91095e+10
-3.89151e+10
-3.87205e+10
-3.8531e+10
-3.83513e+10
-3.81853e+10
-3.80369e+10
-3.79096e+10
-3.78059e+10
-3.77265e+10
-3.76696e+10
-3.76293e+10
-3.75956e+10
-3.75555e+10
-3.74966e+10
-3.74113e+10
-3.73014e+10
-3.71777e+10
-3.70552e+10
-3.69514e+10
-3.68995e+10
-3.69842e+10
-3.73135e+10
-3.77326e+10
-3.73096e+10
-3.4596e+10
-3.03939e+10
-3.15069e+10
-4.57177e+10
-6.16028e+10
-3.65797e+10
-3.89837e+10
-3.90484e+10
-3.90731e+10
-3.91113e+10
-3.92043e+10
-3.92979e+10
-3.93893e+10
-3.94806e+10
-3.95766e+10
-3.96755e+10
-3.97758e+10
-3.98771e+10
-3.997e+10
-4.0045e+10
-4.00982e+10
-4.01271e+10
-4.01268e+10
-4.00949e+10
-4.00294e+10
-3.99286e+10
-3.97915e+10
-3.96201e+10
-3.94206e+10
-3.92024e+10
-3.89759e+10
-3.87509e+10
-3.85349e+10
-3.83336e+10
-3.81514e+10
-3.7993e+10
-3.78615e+10
-3.77573e+10
-3.76786e+10
-3.76235e+10
-3.75867e+10
-3.75557e+10
-3.75171e+10
-3.74579e+10
-3.73691e+10
-3.72503e+10
-3.71084e+10
-3.69535e+10
-3.67969e+10
-3.66682e+10
-3.66571e+10
-3.68928e+10
-3.72731e+10
-3.69716e+10
-3.46402e+10
-3.08628e+10
-3.16658e+10
-4.4934e+10
-6.12073e+10
-3.7799e+10
-3.90295e+10
-3.90883e+10
-3.91021e+10
-3.91089e+10
-3.9199e+10
-3.93071e+10
-3.9397e+10
-3.94851e+10
-3.95813e+10
-3.96791e+10
-3.97787e+10
-3.98781e+10
-3.99691e+10
-4.00429e+10
-4.0096e+10
-4.01251e+10
-4.01251e+10
-4.00927e+10
-4.00261e+10
-3.99236e+10
-3.97844e+10
-3.96107e+10
-3.9409e+10
-3.9189e+10
-3.89617e+10
-3.87371e+10
-3.85233e+10
-3.83261e+10
-3.81496e+10
-3.79976e+10
-3.78729e+10
-3.77766e+10
-3.77076e+10
-3.76618e+10
-3.76314e+10
-3.76052e+10
-3.75689e+10
-3.75086e+10
-3.74161e+10
-3.7292e+10
-3.71452e+10
-3.69887e+10
-3.68383e+10
-3.67291e+10
-3.67559e+10
-3.70489e+10
-3.74868e+10
-3.71692e+10
-3.46775e+10
-3.09609e+10
-3.32921e+10
-4.9322e+10
-6.23314e+10
-3.01145e+10
-3.90495e+10
-3.90853e+10
-3.91258e+10
-3.91422e+10
-3.92099e+10
-3.92979e+10
-3.93904e+10
-3.94842e+10
-3.9585e+10
-3.96943e+10
-3.98087e+10
-3.9922e+10
-4.0028e+10
-4.01191e+10
-4.01911e+10
-4.02387e+10
-4.02561e+10
-4.02389e+10
-4.0183e+10
-4.00849e+10
-3.99408e+10
-3.97518e+10
-3.95243e+10
-3.92708e+10
-3.90063e+10
-3.87446e+10
-3.84964e+10
-3.82692e+10
-3.80685e+10
-3.78981e+10
-3.77604e+10
-3.76552e+10
-3.75801e+10
-3.75314e+10
-3.75023e+10
-3.74809e+10
-3.74529e+10
-3.74046e+10
-3.73266e+10
-3.72168e+10
-3.70807e+10
-3.69276e+10
-3.67693e+10
-3.66386e+10
-3.66291e+10
-3.68768e+10
-3.73028e+10
-3.71267e+10
-3.49883e+10
-3.11906e+10
-3.11787e+10
-4.31463e+10
-6.02318e+10
-3.84345e+10
-3.90922e+10
-3.91289e+10
-3.91254e+10
-3.91316e+10
-3.92028e+10
-3.92967e+10
-3.93906e+10
-3.94859e+10
-3.95861e+10
-3.96931e+10
-3.98054e+10
-3.99173e+10
-4.00207e+10
-4.01093e+10
-4.0179e+10
-4.02247e+10
-4.02413e+10
-4.02246e+10
-4.01707e+10
-4.00755e+10
-3.99358e+10
-3.97521e+10
-3.95306e+10
-3.92836e+10
-3.90254e+10
-3.87699e+10
-3.8528e+10
-3.83071e+10
-3.81123e+10
-3.79472e+10
-3.78139e+10
-3.77131e+10
-3.76425e+10
-3.75974e+10
-3.75694e+10
-3.7547e+10
-3.75159e+10
-3.74624e+10
-3.73772e+10
-3.7259e+10
-3.7115e+10
-3.69568e+10
-3.67989e+10
-3.66779e+10
-3.66926e+10
-3.69836e+10
-3.7463e+10
-3.73047e+10
-3.51404e+10
-3.16838e+10
-3.33966e+10
-4.76469e+10
-6.1402e+10
-3.06989e+10
-3.9111e+10
-3.91308e+10
-3.91554e+10
-3.91863e+10
-3.92473e+10
-3.93318e+10
-3.9428e+10
-3.95293e+10
-3.96392e+10
-3.97645e+10
-3.99026e+10
-4.00415e+10
-4.01745e+10
-4.02959e+10
-4.03988e+10
-4.0474e+10
-4.05136e+10
-4.05115e+10
-4.04639e+10
-4.03658e+10
-4.02115e+10
-3.99986e+10
-3.97347e+10
-3.94378e+10
-3.91305e+10
-3.88333e+10
-3.85611e+10
-3.8323e+10
-3.81233e+10
-3.79636e+10
-3.78433e+10
-3.77601e+10
-3.77105e+10
-3.76883e+10
-3.76838e+10
-3.76843e+10
-3.76745e+10
-3.76398e+10
-3.75702e+10
-3.74644e+10
-3.73295e+10
-3.71776e+10
-3.70257e+10
-3.69133e+10
-3.69419e+10
-3.72593e+10
-3.78152e+10
-3.78764e+10
-3.61235e+10
-3.29556e+10
-3.41212e+10
-4.68308e+10
-5.99819e+10
-3.04894e+10
-3.91246e+10
-3.91451e+10
-3.9163e+10
-3.9189e+10
-3.92534e+10
-3.93345e+10
-3.94274e+10
-3.95306e+10
-3.96425e+10
-3.97668e+10
-3.99016e+10
-4.0039e+10
-4.01717e+10
-4.02937e+10
-4.03981e+10
-4.04758e+10
-4.05179e+10
-4.0518e+10
-4.04719e+10
-4.03754e+10
-4.0223e+10
-4.00123e+10
-3.97506e+10
-3.94559e+10
-3.91506e+10
-3.8855e+10
-3.85838e+10
-3.83459e+10
-3.81458e+10
-3.79847e+10
-3.78625e+10
-3.77771e+10
-3.77249e+10
-3.76998e+10
-3.76925e+10
-3.76903e+10
-3.76787e+10
-3.76441e+10
-3.75778e+10
-3.7479e+10
-3.73557e+10
-3.72207e+10
-3.70906e+10
-3.70033e+10
-3.70569e+10
-3.73924e+10
-3.79407e+10
-3.79263e+10
-3.59675e+10
-3.24026e+10
-3.30768e+10
-4.61214e+10
-6.14129e+10
-3.51772e+10
-3.9086e+10
-3.91014e+10
-3.91177e+10
-3.91591e+10
-3.92245e+10
-3.93138e+10
-3.94165e+10
-3.95268e+10
-3.96492e+10
-3.97905e+10
-3.99456e+10
-4.01052e+10
-4.02625e+10
-4.04107e+10
-4.05404e+10
-4.06409e+10
-4.07016e+10
-4.07146e+10
-4.06764e+10
-4.05819e+10
-4.04215e+10
-4.01852e+10
-3.9878e+10
-3.95243e+10
-3.9158e+10
-3.88087e+10
-3.84961e+10
-3.82302e+10
-3.80138e+10
-3.78452e+10
-3.77205e+10
-3.76352e+10
-3.75842e+10
-3.75603e+10
-3.75531e+10
-3.75496e+10
-3.75351e+10
-3.74958e+10
-3.74217e+10
-3.73104e+10
-3.71687e+10
-3.70092e+10
-3.68499e+10
-3.67311e+10
-3.6753e+10
-3.70619e+10
-3.76078e+10
-3.76425e+10
-3.57494e+10
-3.21189e+10
-3.26137e+10
-4.59873e+10
-6.31808e+10
-3.83388e+10
-3.90852e+10
-3.90965e+10
-3.91273e+10
-3.91754e+10
-3.92423e+10
-3.93257e+10
-3.94258e+10
-3.95399e+10
-3.96684e+10
-3.98128e+10
-3.997e+10
-4.01331e+10
-4.02947e+10
-4.0447e+10
-4.05803e+10
-4.0683e+10
-4.07444e+10
-4.07575e+10
-4.07192e+10
-4.06247e+10
-4.0463e+10
-4.02243e+10
-3.99134e+10
-3.95556e+10
-3.91861e+10
-3.8835e+10
-3.85222e+10
-3.82575e+10
-3.80435e+10
-3.7878e+10
-3.7757e+10
-3.76755e+10
-3.76278e+10
-3.76064e+10
-3.76014e+10
-3.76003e+10
-3.75887e+10
-3.75532e+10
-3.74844e+10
-3.73808e+10
-3.72496e+10
-3.71037e+10
-3.6961e+10
-3.68606e+10
-3.68996e+10
-3.72173e+10
-3.77516e+10
-3.77335e+10
-3.56748e+10
-3.14643e+10
-3.04263e+10
-4.26084e+10
-6.29824e+10
-4.00644e+10
-3.9118e+10
-3.91223e+10
-3.91364e+10
-3.91823e+10
-3.92536e+10
-3.9343e+10
-3.94446e+10
-3.95586e+10
-3.96936e+10
-3.98527e+10
-4.00281e+10
-4.02133e+10
-4.04022e+10
-4.05861e+10
-4.07534e+10
-4.08908e+10
-4.09838e+10
-4.10225e+10
-4.10026e+10
-4.09209e+10
-4.07605e+10
-4.04959e+10
-4.01218e+10
-3.96757e+10
-3.92178e+10
-3.87958e+10
-3.84346e+10
-3.81421e+10
-3.79153e+10
-3.77461e+10
-3.76258e+10
-3.75462e+10
-3.75e+10
-3.7479e+10
-3.74734e+10
-3.7471e+10
-3.74582e+10
-3.74222e+10
-3.73545e+10
-3.72538e+10
-3.7127e+10
-3.69859e+10
-3.6848e+10
-3.67523e+10
-3.67948e+10
-3.71154e+10
-3.7658e+10
-3.76564e+10
-3.56008e+10
-3.14202e+10
-3.06541e+10
-4.27988e+10
-6.12945e+10
-4.00269e+10
-3.91286e+10
-3.91226e+10
-3.91493e+10
-3.92052e+10
-3.92732e+10
-3.93528e+10
-3.94509e+10
-3.95652e+10
-3.96988e+10
-3.98529e+10
-4.00234e+10
-4.02046e+10
-4.03897e+10
-4.05702e+10
-4.07351e+10
-4.08709e+10
-4.09635e+10
-4.1003e+10
-4.09868e+10
-4.0911e+10
-4.07582e+10
-4.05019e+10
-4.01357e+10
-3.96955e+10
-3.92406e+10
-3.8819e+10
-3.8457e+10
-3.81634e+10
-3.7936e+10
-3.77674e+10
-3.76489e+10
-3.75722e+10
-3.75295e+10
-3.75127e+10
-3.75116e+10
-3.75143e+10
-3.75066e+10
-3.74748e+10
-3.74094e+10
-3.73083e+10
-3.71774e+10
-3.70283e+10
-3.68789e+10
-3.67704e+10
-3.6805e+10
-3.71336e+10
-3.77191e+10
-3.78222e+10
-3.59445e+10
-3.19476e+10
-3.12496e+10
-4.31494e+10
-6.01866e+10
-3.49434e+10
-3.90331e+10
-3.90376e+10
-3.90525e+10
-3.90967e+10
-3.91699e+10
-3.9258e+10
-3.9359e+10
-3.94806e+10
-3.96306e+10
-3.98088e+10
-4.0011e+10
-4.02327e+10
-4.04669e+10
-4.07036e+10
-4.09292e+10
-4.11262e+10
-4.12735e+10
-4.13539e+10
-4.13617e+10
-4.12983e+10
-4.11403e+10
-4.08308e+10
-4.0334e+10
-3.97078e+10
-3.90721e+10
-3.85132e+10
-3.80634e+10
-3.77251e+10
-3.74841e+10
-3.73204e+10
-3.72157e+10
-3.71555e+10
-3.71285e+10
-3.71245e+10
-3.7133e+10
-3.71421e+10
-3.7139e+10
-3.71121e+10
-3.70533e+10
-3.69618e+10
-3.68448e+10
-3.6715e+10
-3.65905e+10
-3.65127e+10
-3.65849e+10
-3.69618e+10
-3.76094e+10
-3.77826e+10
-3.60023e+10
-3.23146e+10
-3.23459e+10
-4.41659e+10
-5.7672e+10
-2.96501e+10
-3.90505e+10
-3.90428e+10
-3.90615e+10
-3.91076e+10
-3.91705e+10
-3.92473e+10
-3.93449e+10
-3.94633e+10
-3.96059e+10
-3.97754e+10
-3.99704e+10
-4.01866e+10
-4.04172e+10
-4.06527e+10
-4.08804e+10
-4.10828e+10
-4.12391e+10
-4.13308e+10
-4.13511e+10
-4.12991e+10
-4.1152e+10
-4.08519e+10
-4.03621e+10
-3.97397e+10
-3.9104e+10
-3.85421e+10
-3.80868e+10
-3.77415e+10
-3.74924e+10
-3.73213e+10
-3.72107e+10
-3.71469e+10
-3.7119e+10
-3.71169e+10
-3.71299e+10
-3.71459e+10
-3.71512e+10
-3.7133e+10
-3.70818e+10
-3.69939e+10
-3.68731e+10
-3.67284e+10
-3.65745e+10
-3.64503e+10
-3.64596e+10
-3.67629e+10
-3.73414e+10
-3.74733e+10
-3.56864e+10
-3.1981e+10
-3.20218e+10
-4.4136e+10
-5.75636e+10
-2.95848e+10
-3.9031e+10
-3.90505e+10
-3.90678e+10
-3.91031e+10
-3.91638e+10
-3.92396e+10
-3.93316e+10
-3.94495e+10
-3.95985e+10
-3.97805e+10
-3.9998e+10
-4.02492e+10
-4.05282e+10
-4.08247e+10
-4.11235e+10
-4.14022e+10
-4.16316e+10
-4.17824e+10
-4.18453e+10
-4.18315e+10
-4.17261e+10
-4.14278e+10
-4.08231e+10
-3.99734e+10
-3.91038e+10
-3.83769e+10
-3.78296e+10
-3.74521e+10
-3.72077e+10
-3.70598e+10
-3.69792e+10
-3.69454e+10
-3.69445e+10
-3.69654e+10
-3.69975e+10
-3.7029e+10
-3.70468e+10
-3.70387e+10
-3.69958e+10
-3.69149e+10
-3.67985e+10
-3.66531e+10
-3.64901e+10
-3.63451e+10
-3.6319e+10
-3.65675e+10
-3.70561e+10
-3.70229e+10
-3.4935e+10
-3.07474e+10
-3.01276e+10
-4.18256e+10
-5.66942e+10
-2.92742e+10
-3.90285e+10
-3.90421e+10
-3.9058e+10
-3.90919e+10
-3.91477e+10
-3.92242e+10
-3.93189e+10
-3.94386e+10
-3.95888e+10
-3.9774e+10
-3.9996e+10
-4.02529e+10
-4.05385e+10
-4.0842e+10
-4.11471e+10
-4.14306e+10
-4.16624e+10
-4.18143e+10
-4.18776e+10
-4.18648e+10
-4.17589e+10
-4.1457e+10
-4.08441e+10
-3.99808e+10
-3.90989e+10
-3.83668e+10
-3.7821e+10
-3.74486e+10
-3.72104e+10
-3.70673e+10
-3.69893e+10
-3.69554e+10
-3.69512e+10
-3.69658e+10
-3.69884e+10
-3.70072e+10
-3.70095e+10
-3.69829e+10
-3.69181e+10
-3.68118e+10
-3.66664e+10
-3.64877e+10
-3.62862e+10
-3.6096e+10
-3.60163e+10
-3.62015e+10
-3.6616e+10
-3.6492e+10
-3.42471e+10
-2.95994e+10
-2.78889e+10
-3.90933e+10
-5.76178e+10
-3.23494e+10
-3.88962e+10
-3.891e+10
-3.89208e+10
-3.89418e+10
-3.89806e+10
-3.90368e+10
-3.91153e+10
-3.92254e+10
-3.93771e+10
-3.95798e+10
-3.98407e+10
-4.0162e+10
-4.05387e+10
-4.09574e+10
-4.1395e+10
-4.18168e+10
-4.21767e+10
-4.24263e+10
-4.25462e+10
-4.25717e+10
-4.25332e+10
-4.22946e+10
-4.15659e+10
-4.03276e+10
-3.90231e+10
-3.80572e+10
-3.74372e+10
-3.70774e+10
-3.68861e+10
-3.67997e+10
-3.67775e+10
-3.67949e+10
-3.68378e+10
-3.68971e+10
-3.69647e+10
-3.70309e+10
-3.70844e+10
-3.71142e+10
-3.7112e+10
-3.70741e+10
-3.70013e+10
-3.6896e+10
-3.67631e+10
-3.66306e+10
-3.659e+10
-3.67829e+10
-3.7146e+10
-3.68675e+10
-3.43254e+10
-2.92713e+10
-2.72316e+10
-3.82983e+10
-5.62019e+10
-3.05975e+10
-3.88917e+10
-3.89005e+10
-3.89127e+10
-3.89354e+10
-3.89791e+10
-3.9041e+10
-3.91226e+10
-3.92359e+10
-3.93902e+10
-3.95942e+10
-3.98544e+10
-4.01727e+10
-4.05436e+10
-4.09537e+10
-4.13799e+10
-4.17882e+10
-4.21334e+10
-4.23685e+10
-4.24767e+10
-4.2496e+10
-4.2457e+10
-4.22286e+10
-4.15281e+10
-4.03238e+10
-3.90412e+10
-3.80856e+10
-3.74675e+10
-3.7107e+10
-3.69157e+10
-3.68299e+10
-3.68075e+10
-3.68227e+10
-3.68597e+10
-3.69081e+10
-3.69591e+10
-3.70024e+10
-3.70261e+10
-3.70195e+10
-3.69756e+10
-3.68935e+10
-3.67784e+10
-3.66383e+10
-3.64861e+10
-3.63588e+10
-3.636e+10
-3.66451e+10
-3.71641e+10
-3.711e+10
-3.48335e+10
-2.99793e+10
-2.78906e+10
-3.86278e+10
-5.63937e+10
-3.03636e+10
-3.88271e+10
-3.8839e+10
-3.88588e+10
-3.88913e+10
-3.89383e+10
-3.90048e+10
-3.90988e+10
-3.92317e+10
-3.94174e+10
-3.96699e+10
-3.99989e+10
-4.04069e+10
-4.08854e+10
-4.14138e+10
-4.1959e+10
-4.24763e+10
-4.29077e+10
-4.31935e+10
-4.33074e+10
-4.33215e+10
-4.33738e+10
-4.33563e+10
-4.2615e+10
-4.06891e+10
-3.84878e+10
-3.72337e+10
-3.66569e+10
-3.64234e+10
-3.63817e+10
-3.64326e+10
-3.6522e+10
-3.66225e+10
-3.67233e+10
-3.68199e+10
-3.69092e+10
-3.69857e+10
-3.70422e+10
-3.70715e+10
-3.70699e+10
-3.70388e+10
-3.69847e+10
-3.69162e+10
-3.68455e+10
-3.68101e+10
-3.69125e+10
-3.72961e+10
-3.78758e+10
-3.78151e+10
-3.55695e+10
-3.11768e+10
-3.02594e+10
-4.14846e+10
-5.64395e+10
-2.85459e+10
-3.88224e+10
-3.88272e+10
-3.88547e+10
-3.88935e+10
-3.89489e+10
-3.90222e+10
-3.91224e+10
-3.92612e+10
-3.94519e+10
-3.97077e+10
-4.00381e+10
-4.04456e+10
-4.09223e+10
-4.14486e+10
-4.19921e+10
-4.25075e+10
-4.29355e+10
-4.32109e+10
-4.33064e+10
-4.32971e+10
-4.33181e+10
-4.32647e+10
-4.25326e+10
-4.06691e+10
-3.85253e+10
-3.72983e+10
-3.67148e+10
-3.6473e+10
-3.64271e+10
-3.64792e+10
-3.6574e+10
-3.66827e+10
-3.67925e+10
-3.68967e+10
-3.69899e+10
-3.70641e+10
-3.71099e+10
-3.71182e+10
-3.70834e+10
-3.70059e+10
-3.68924e+10
-3.67538e+10
-3.66073e+10
-3.64991e+10
-3.65462e+10
-3.69145e+10
-3.75508e+10
-3.76515e+10
-3.56861e+10
-3.17153e+10
-3.15865e+10
-4.38012e+10
-5.74446e+10
-2.9588e+10
-3.87622e+10
-3.87669e+10
-3.87865e+10
-3.88166e+10
-3.88542e+10
-3.89017e+10
-3.89677e+10
-3.90655e+10
-3.92136e+10
-3.94322e+10
-3.97388e+10
-4.0144e+10
-4.06481e+10
-4.12378e+10
-4.18838e+10
-4.25404e+10
-4.314e+10
-4.35965e+10
-4.38548e+10
-4.40113e+10
-4.43581e+10
-4.49326e+10
-4.45672e+10
-4.1547e+10
-3.7714e+10
-3.60913e+10
-3.55455e+10
-3.54745e+10
-3.56573e+10
-3.59112e+10
-3.61603e+10
-3.63798e+10
-3.65672e+10
-3.67251e+10
-3.68541e+10
-3.69506e+10
-3.7008e+10
-3.70193e+10
-3.69805e+10
-3.68937e+10
-3.67677e+10
-3.66158e+10
-3.64595e+10
-3.63508e+10
-3.64105e+10
-3.67948e+10
-3.74154e+10
-3.74537e+10
-3.55529e+10
-3.22302e+10
-3.34188e+10
-4.6345e+10
-5.92351e+10
-2.97756e+10
-3.87504e+10
-3.87549e+10
-3.87813e+10
-3.88193e+10
-3.88658e+10
-3.89228e+10
-3.89987e+10
-3.91062e+10
-3.92635e+10
-3.94901e+10
-3.98028e+10
-4.0211e+10
-4.07142e+10
-4.12992e+10
-4.19374e+10
-4.25808e+10
-4.31615e+10
-4.35931e+10
-4.38081e+10
-4.38988e+10
-4.41514e+10
-4.46277e+10
-4.43084e+10
-4.15674e+10
-3.78266e+10
-3.62146e+10
-3.56355e+10
-3.55456e+10
-3.57104e+10
-3.59501e+10
-3.61903e+10
-3.64057e+10
-3.65927e+10
-3.67528e+10
-3.68856e+10
-3.69864e+10
-3.70472e+10
-3.70591e+10
-3.7016e+10
-3.69179e+10
-3.67713e+10
-3.65881e+10
-3.63887e+10
-3.62256e+10
-3.62219e+10
-3.65387e+10
-3.70924e+10
-3.70565e+10
-3.50085e+10
-3.12276e+10
-3.13378e+10
-4.39292e+10
-6.16962e+10
-3.91243e+10
-3.86282e+10
-3.86395e+10
-3.86527e+10
-3.86697e+10
-3.86868e+10
-3.87033e+10
-3.87284e+10
-3.87825e+10
-3.88976e+10
-3.91125e+10
-3.94669e+10
-3.99923e+10
-4.07019e+10
-4.15815e+10
-4.25825e+10
-4.36362e+10
-4.46426e+10
-4.54745e+10
-4.60347e+10
-4.64667e+10
-4.71856e+10
-4.83329e+10
-4.86654e+10
-4.48495e+10
-3.91111e+10
-3.48839e+10
-3.44516e+10
-3.48159e+10
-3.53032e+10
-3.57346e+10
-3.60919e+10
-3.63854e+10
-3.66304e+10
-3.68365e+10
-3.70069e+10
-3.71392e+10
-3.72274e+10
-3.72638e+10
-3.72435e+10
-3.71681e+10
-3.70463e+10
-3.68922e+10
-3.67278e+10
-3.66059e+10
-3.66446e+10
-3.69882e+10
-3.75268e+10
-3.74355e+10
-3.54249e+10
-3.21117e+10
-3.31786e+10
-4.54845e+10
-5.88181e+10
-2.9934e+10
-3.86302e+10
-3.86424e+10
-3.86592e+10
-3.86797e+10
-3.87007e+10
-3.87219e+10
-3.87518e+10
-3.88101e+10
-3.89283e+10
-3.91439e+10
-3.94942e+10
-4.00078e+10
-4.06968e+10
-4.15522e+10
-4.25382e+10
-4.35745e+10
-4.45485e+10
-4.53353e+10
-4.57769e+10
-4.60063e+10
-4.65096e+10
-4.75479e+10
-4.80507e+10
-4.51156e+10
-3.96404e+10
-3.48193e+10
-3.44011e+10
-3.47962e+10
-3.53003e+10
-3.57355e+10
-3.6089e+10
-3.63754e+10
-3.66127e+10
-3.68117e+10
-3.69762e+10
-3.71046e+10
-3.71915e+10
-3.72304e+10
-3.72178e+10
-3.71562e+10
-3.70546e+10
-3.69268e+10
-3.67942e+10
-3.67077e+10
-3.67813e+10
-3.71523e+10
-3.76893e+10
-3.75003e+10
-3.51434e+10
-3.09914e+10
-3.07037e+10
-4.28913e+10
-6.12327e+10
-3.96489e+10
-3.86186e+10
-3.86452e+10
-3.86507e+10
-3.8657e+10
-3.86547e+10
-3.86446e+10
-3.86379e+10
-3.86632e+10
-3.8765e+10
-3.89949e+10
-3.94012e+10
-4.0015e+10
-4.08318e+10
-4.18033e+10
-4.28602e+10
-4.39362e+10
-4.49491e+10
-4.57883e+10
-4.63711e+10
-4.68884e+10
-4.76612e+10
-4.87807e+10
-4.96294e+10
-4.83274e+10
-4.32762e+10
-2.85814e+10
-3.12714e+10
-3.34124e+10
-3.46242e+10
-3.53655e+10
-3.58654e+10
-3.62273e+10
-3.65051e+10
-3.67258e+10
-3.69015e+10
-3.70346e+10
-3.71222e+10
-3.71595e+10
-3.71448e+10
-3.70826e+10
-3.69838e+10
-3.6864e+10
-3.67451e+10
-3.66751e+10
-3.67605e+10
-3.71276e+10
-3.76465e+10
-3.74683e+10
-3.52602e+10
-3.15965e+10
-3.23174e+10
-4.48866e+10
-5.91947e+10
-3.38209e+10
-3.86017e+10
-3.86308e+10
-3.86359e+10
-3.86446e+10
-3.86472e+10
-3.86441e+10
-3.86458e+10
-3.86788e+10
-3.87856e+10
-3.90167e+10
-3.94201e+10
-4.00258e+10
-4.08317e+10
-4.18038e+10
-4.28842e+10
-4.39731e+10
-4.4969e+10
-4.57572e+10
-4.6183e+10
-4.64524e+10
-4.71645e+10
-4.86723e+10
-4.96545e+10
-4.87257e+10
-4.59609e+10
-2.86512e+10
-3.11543e+10
-3.33125e+10
-3.45586e+10
-3.53218e+10
-3.58309e+10
-3.61933e+10
-3.64659e+10
-3.66783e+10
-3.68443e+10
-3.69673e+10
-3.70453e+10
-3.70749e+10
-3.70558e+10
-3.6994e+10
-3.69025e+10
-3.67984e+10
-3.67044e+10
-3.66684e+10
-3.6795e+10
-3.72058e+10
-3.77483e+10
-3.74952e+10
-3.50129e+10
-3.11878e+10
-3.32117e+10
-4.86362e+10
-6.10721e+10
-3.013e+10
-3.85994e+10
-3.86112e+10
-3.86163e+10
-3.86179e+10
-3.86114e+10
-3.85971e+10
-3.85873e+10
-3.86127e+10
-3.87203e+10
-3.89608e+10
-3.93792e+10
-4.00028e+10
-4.08184e+10
-4.17894e+10
-4.28619e+10
-4.3951e+10
-4.49685e+10
-4.58179e+10
-4.64344e+10
-4.70055e+10
-4.78638e+10
-4.89347e+10
-4.88373e+10
-4.4099e+10
-2.1815e+10
-3.07652e+10
-3.30806e+10
-3.44365e+10
-3.52652e+10
-3.58082e+10
-3.61851e+10
-3.64606e+10
-3.66679e+10
-3.68228e+10
-3.69302e+10
-3.69889e+10
-3.69963e+10
-3.69529e+10
-3.68656e+10
-3.6748e+10
-3.66179e+10
-3.64978e+10
-3.64326e+10
-3.65224e+10
-3.68917e+10
-3.74317e+10
-3.73392e+10
-3.52828e+10
-3.16619e+10
-3.19285e+10
-4.36146e+10
-5.90708e+10
-3.69441e+10
-3.8581e+10
-3.86008e+10
-3.86037e+10
-3.86087e+10
-3.86073e+10
-3.86005e+10
-3.85991e+10
-3.86309e+10
-3.87399e+10
-3.89777e+10
-3.93921e+10
-4.00099e+10
-4.08237e+10
-4.17991e+10
-4.2876e+10
-4.39699e+10
-4.49797e+10
-4.5761e+10
-4.62324e+10
-4.65336e+10
-4.71856e+10
-4.8577e+10
-4.99896e+10
-4.90448e+10
-2.28818e+10
-3.07339e+10
-3.3005e+10
-3.43732e+10
-3.52211e+10
-3.57795e+10
-3.61687e+10
-3.64548e+10
-3.66724e+10
-3.68382e+10
-3.69573e+10
-3.70286e+10
-3.70492e+10
-3.7019e+10
-3.69445e+10
-3.68389e+10
-3.67198e+10
-3.66095e+10
-3.6553e+10
-3.66512e+10
-3.70301e+10
-3.7574e+10
-3.74457e+10
-3.5302e+10
-3.19024e+10
-3.37561e+10
-4.78339e+10
-6.06192e+10
-2.96635e+10
-3.86609e+10
-3.86634e+10
-3.86766e+10
-3.8686e+10
-3.86917e+10
-3.86925e+10
-3.86992e+10
-3.87376e+10
-3.88496e+10
-3.90808e+10
-3.94706e+10
-4.00482e+10
-4.08137e+10
-4.1743e+10
-4.27896e+10
-4.38543e+10
-4.48299e+10
-4.56441e+10
-4.62065e+10
-4.65834e+10
-4.71167e+10
-4.79702e+10
-4.86896e+10
-4.72271e+10
-3.70754e+10
-3.32454e+10
-3.33824e+10
-3.42241e+10
-3.5023e+10
-3.56278e+10
-3.60711e+10
-3.6403e+10
-3.66612e+10
-3.6868e+10
-3.70339e+10
-3.71614e+10
-3.72476e+10
-3.72889e+10
-3.72845e+10
-3.72395e+10
-3.71655e+10
-3.70772e+10
-3.69927e+10
-3.69503e+10
-3.70419e+10
-3.73927e+10
-3.79273e+10
-3.7924e+10
-3.61455e+10
-3.30791e+10
-3.43858e+10
-4.68999e+10
-5.91342e+10
-2.96815e+10
-3.86587e+10
-3.86674e+10
-3.86783e+10
-3.86919e+10
-3.87049e+10
-3.87171e+10
-3.87375e+10
-3.87888e+10
-3.8908e+10
-3.91387e+10
-3.95212e+10
-4.00812e+10
-4.08163e+10
-4.16984e+10
-4.26786e+10
-4.36749e+10
-4.45818e+10
-4.52697e+10
-4.57037e+10
-4.60744e+10
-4.67698e+10
-4.77962e+10
-4.81047e+10
-4.671e+10
-3.7969e+10
-3.30068e+10
-3.31441e+10
-3.40522e+10
-3.49092e+10
-3.55528e+10
-3.602e+10
-3.63683e+10
-3.66397e+10
-3.68587e+10
-3.70372e+10
-3.71777e+10
-3.72775e+10
-3.73321e+10
-3.734e+10
-3.73054e+10
-3.72386e+10
-3.71536e+10
-3.70684e+10
-3.70214e+10
-3.71043e+10
-3.74406e+10
-3.79477e+10
-3.78852e+10
-3.59507e+10
-3.242e+10
-3.28012e+10
-4.52569e+10
-6.13136e+10
-3.63329e+10
-3.88132e+10
-3.88199e+10
-3.88411e+10
-3.8869e+10
-3.89034e+10
-3.89446e+10
-3.89992e+10
-3.90828e+10
-3.92193e+10
-3.9436e+10
-3.97566e+10
-4.01959e+10
-4.07521e+10
-4.14077e+10
-4.21263e+10
-4.28425e+10
-4.34696e+10
-4.39173e+10
-4.41168e+10
-4.41323e+10
-4.42386e+10
-4.45837e+10
-4.43081e+10
-4.13628e+10
-3.78999e+10
-3.62027e+10
-3.56146e+10
-3.55483e+10
-3.57431e+10
-3.59983e+10
-3.62471e+10
-3.6469e+10
-3.66643e+10
-3.68356e+10
-3.69833e+10
-3.71045e+10
-3.71941e+10
-3.72466e+10
-3.72595e+10
-3.72358e+10
-3.71839e+10
-3.71149e+10
-3.70421e+10
-3.69966e+10
-3.70622e+10
-3.73601e+10
-3.78315e+10
-3.7807e+10
-3.60802e+10
-3.29809e+10
-3.39008e+10
-4.66199e+10
-6.23696e+10
-3.54392e+10
-3.88094e+10
-3.88132e+10
-3.88322e+10
-3.8859e+10
-3.88937e+10
-3.89369e+10
-3.89957e+10
-3.90851e+10
-3.9228e+10
-3.94504e+10
-3.97752e+10
-4.02144e+10
-4.07629e+10
-4.13985e+10
-4.20812e+10
-4.27498e+10
-4.33244e+10
-4.37171e+10
-4.38928e+10
-4.39725e+10
-4.42295e+10
-4.46757e+10
-4.42913e+10
-4.14457e+10
-3.78468e+10
-3.60206e+10
-3.54261e+10
-3.54055e+10
-3.56518e+10
-3.5947e+10
-3.62232e+10
-3.64633e+10
-3.66706e+10
-3.68502e+10
-3.70038e+10
-3.7129e+10
-3.72204e+10
-3.72722e+10
-3.72818e+10
-3.72522e+10
-3.71925e+10
-3.7115e+10
-3.7035e+10
-3.69857e+10
-3.70509e+10
-3.73482e+10
-3.78129e+10
-3.7758e+10
-3.58578e+10
-3.19607e+10
-3.07763e+10
-4.20055e+10
-6.39729e+10
-4.9515e+10
-3.89236e+10
-3.89288e+10
-3.89481e+10
-3.89792e+10
-3.90232e+10
-3.90832e+10
-3.91657e+10
-3.92817e+10
-3.94456e+10
-3.96727e+10
-3.99751e+10
-4.03576e+10
-4.08131e+10
-4.13211e+10
-4.18466e+10
-4.23401e+10
-4.27429e+10
-4.29974e+10
-4.30687e+10
-4.30025e+10
-4.29253e+10
-4.27791e+10
-4.20026e+10
-4.01861e+10
-3.82236e+10
-3.70667e+10
-3.64974e+10
-3.627e+10
-3.62597e+10
-3.63566e+10
-3.64986e+10
-3.6652e+10
-3.68024e+10
-3.69432e+10
-3.70692e+10
-3.7174e+10
-3.72501e+10
-3.72911e+10
-3.72941e+10
-3.72623e+10
-3.72048e+10
-3.71335e+10
-3.70632e+10
-3.70274e+10
-3.71129e+10
-3.74456e+10
-3.79765e+10
-3.80553e+10
-3.65093e+10
-3.36847e+10
-3.47906e+10
-4.69643e+10
-6.07117e+10
-3.12879e+10
-3.89124e+10
-3.8916e+10
-3.89358e+10
-3.89663e+10
-3.90103e+10
-3.90706e+10
-3.91544e+10
-3.92734e+10
-3.94428e+10
-3.96785e+10
-3.99931e+10
-4.03912e+10
-4.08648e+10
-4.13922e+10
-4.19366e+10
-4.24466e+10
-4.28595e+10
-4.31157e+10
-4.31931e+10
-4.31552e+10
-4.31203e+10
-4.29787e+10
-4.21354e+10
-4.01988e+10
-3.81092e+10
-3.69087e+10
-3.63631e+10
-3.61789e+10
-3.62107e+10
-3.63405e+10
-3.65065e+10
-3.66777e+10
-3.68419e+10
-3.69936e+10
-3.71282e+10
-3.72391e+10
-3.73188e+10
-3.73606e+10
-3.73613e+10
-3.73242e+10
-3.72586e+10
-3.71775e+10
-3.70968e+10
-3.70506e+10
-3.71238e+10
-3.74379e+10
-3.79367e+10
-3.79446e+10
-3.61704e+10
-3.26682e+10
-3.26202e+10
-4.49931e+10
-6.30567e+10
-3.85883e+10
-3.90405e+10
-3.9046e+10
-3.90646e+10
-3.90936e+10
-3.9136e+10
-3.91949e+10
-3.92765e+10
-3.93893e+10
-3.95429e+10
-3.97467e+10
-4.00074e+10
-4.0326e+10
-4.06956e+10
-4.10995e+10
-4.15104e+10
-4.18917e+10
-4.22007e+10
-4.23977e+10
-4.24642e+10
-4.24268e+10
-4.23099e+10
-4.19842e+10
-4.11686e+10
-3.98692e+10
-3.85567e+10
-3.76189e+10
-3.70548e+10
-3.67638e+10
-3.66522e+10
-3.66475e+10
-3.67024e+10
-3.67872e+10
-3.6884e+10
-3.69816e+10
-3.70705e+10
-3.71412e+10
-3.71835e+10
-3.71895e+10
-3.7156e+10
-3.70869e+10
-3.69925e+10
-3.68877e+10
-3.67917e+10
-3.67444e+10
-3.68404e+10
-3.72117e+10
-3.7799e+10
-3.79045e+10
-3.62787e+10
-3.32052e+10
-3.39025e+10
-4.59691e+10
-6.0797e+10
-3.3584e+10
-3.90393e+10
-3.90438e+10
-3.90648e+10
-3.90946e+10
-3.91374e+10
-3.9196e+10
-3.92767e+10
-3.9388e+10
-3.954e+10
-3.97422e+10
-4.00019e+10
-4.03207e+10
-4.06924e+10
-4.11016e+10
-4.15225e+10
-4.19185e+10
-4.22446e+10
-4.24566e+10
-4.25378e+10
-4.25195e+10
-4.24211e+10
-4.20961e+10
-4.12524e+10
-3.99028e+10
-3.85472e+10
-3.7603e+10
-3.70549e+10
-3.67819e+10
-3.66841e+10
-3.66884e+10
-3.67493e+10
-3.68388e+10
-3.69405e+10
-3.70436e+10
-3.71387e+10
-3.72161e+10
-3.7266e+10
-3.72805e+10
-3.72564e+10
-3.71971e+10
-3.71129e+10
-3.70173e+10
-3.69267e+10
-3.68765e+10
-3.69539e+10
-3.72812e+10
-3.77849e+10
-3.77271e+10
-3.58021e+10
-3.25338e+10
-3.42339e+10
-4.87849e+10
-6.31231e+10
-3.29852e+10
-3.91303e+10
-3.91419e+10
-3.91646e+10
-3.91998e+10
-3.92487e+10
-3.9314e+10
-3.94e+10
-3.95122e+10
-3.96562e+10
-3.98365e+10
-4.00549e+10
-4.03093e+10
-4.05918e+10
-4.08891e+10
-4.11821e+10
-4.1445e+10
-4.16472e+10
-4.17621e+10
-4.17826e+10
-4.17231e+10
-4.15712e+10
-4.12258e+10
-4.05707e+10
-3.96733e+10
-3.8771e+10
-3.804e+10
-3.75205e+10
-3.719e+10
-3.70014e+10
-3.69103e+10
-3.68833e+10
-3.68971e+10
-3.69354e+10
-3.69852e+10
-3.70348e+10
-3.70719e+10
-3.70843e+10
-3.70619e+10
-3.7e+10
-3.6901e+10
-3.67747e+10
-3.66353e+10
-3.65017e+10
-3.64153e+10
-3.64732e+10
-3.68044e+10
-3.73236e+10
-3.72535e+10
-3.51928e+10
-3.12228e+10
-3.06382e+10
-4.26385e+10
-6.1883e+10
-4.48293e+10
-3.91455e+10
-3.9158e+10
-3.91835e+10
-3.92202e+10
-3.92701e+10
-3.93355e+10
-3.94205e+10
-3.95302e+10
-3.96699e+10
-3.9844e+10
-4.00543e+10
-4.02985e+10
-4.05698e+10
-4.08557e+10
-4.11383e+10
-4.13925e+10
-4.15884e+10
-4.16997e+10
-4.17205e+10
-4.16657e+10
-4.15231e+10
-4.11925e+10
-4.05604e+10
-3.96881e+10
-3.88079e+10
-3.80938e+10
-3.75838e+10
-3.72547e+10
-3.70617e+10
-3.69631e+10
-3.69277e+10
-3.69334e+10
-3.69647e+10
-3.70092e+10
-3.70557e+10
-3.70919e+10
-3.71065e+10
-3.70901e+10
-3.70387e+10
-3.69554e+10
-3.68495e+10
-3.6734e+10
-3.66245e+10
-3.65562e+10
-3.66175e+10
-3.69272e+10
-3.73789e+10
-3.71398e+10
-3.48126e+10