/*--------------------------------*- C++ -*----------------------------------*\
| =========                 |                                                 |
| \\      /  F ield         | OpenFOAM: The Open Source CFD Toolbox           |
|  \\    /   O peration     | Version:  4.1                                   |
|   \\  /    A nd           | Web:      www.OpenFOAM.org                      |
|    \\/     M anipulation  |                                                 |
\*---------------------------------------------------------------------------*/
FoamFile
{
    version     2.0;
    format      ascii;
    class       volVectorField;
    location    "74";
    object      U;
}
// * * * * * * * * * * * * * * * * * * * * * * * * * * * * * * * * * * * * * //

dimensions      [0 1 -1 0 0 0 0];

internalField   nonuniform List<vector> 
4432
(
(-134752 -4014.34 78.3332)
(-141107 -4253.23 -432.542)
(-143033 -4110.91 -381.466)
(-145516 -4319.25 -784.207)
(-147831 -4369.5 -984.098)
(-150004 -4412.78 -1091.55)
(-151909 -4469.88 -1251.17)
(-153695 -4511.23 -1391.82)
(-155335 -4548.79 -1544.49)
(-156829 -4585.56 -1716.59)
(-158156 -4623.1 -1912.9)
(-159290 -4659.62 -2141.27)
(-160206 -4694.83 -2404.02)
(-160875 -4728.72 -2698.13)
(-161271 -4762.64 -3016.52)
(-161344 -4797.83 -3355.02)
(-161065 -4835.86 -3703.24)
(-160430 -4880.73 -4069.45)
(-159429 -4930.37 -4448.84)
(-158055 -4985.82 -4838.88)
(-156295 -5044.84 -5225.43)
(-154152 -5109.6 -5603.08)
(-151649 -5177.64 -5958.71)
(-148819 -5249.93 -6285.12)
(-145718 -5324.94 -6574.86)
(-142396 -5401.52 -6825.48)
(-138914 -5477.37 -7034.8)
(-135318 -5550.52 -7202.88)
(-131665 -5618.22 -7328.99)
(-127998 -5677.82 -7413.16)
(-124366 -5726.27 -7455.23)
(-120814 -5760.28 -7454.76)
(-117378 -5776.79 -7413.97)
(-114104 -5773.04 -7334.02)
(-111018 -5748.52 -7219.93)
(-108149 -5704.49 -7081.42)
(-105506 -5643.7 -6931.8)
(-103087 -5563.45 -6771.52)
(-100900 -5457.41 -6591.25)
(-98950.4 -5325.67 -6390.07)
(-97250.6 -5181.65 -6187.31)
(-95662.5 -5033.04 -6018.7)
(-94127.8 -4869.08 -5851.45)
(-92643.9 -4678.53 -5633.17)
(-91578.1 -4442.68 -5276.98)
(-91815.4 -4130.15 -4706.22)
(-93755.9 -3712.85 -3922.95)
(-94896.4 -3141.84 -2782.47)
(-90455.2 -2120.89 -455.474)
(-83740.2 384.516 5840.04)
(-97747.8 6974.72 13145)
(-144832 13434.9 20621.6)
(-178310 20902.3 5244.55)
(-53747.5 10203.1 -6851.99)
(-194434 4548.28 933.961)
(-197875 4559.23 523.188)
(-199325 4735.69 304.288)
(-200998 4670.34 112.778)
(-202411 4705.61 -77.8103)
(-203815 4743.57 -194.642)
(-205035 4764.9 -338.917)
(-206161 4791.64 -473.977)
(-207198 4815.52 -621.868)
(-208137 4833.44 -782.868)
(-208956 4843.83 -963.027)
(-209633 4847.45 -1167.99)
(-210146 4843.83 -1398.95)
(-210473 4832.71 -1651.1)
(-210594 4813.68 -1917.02)
(-210478 4787.44 -2189.44)
(-210135 4762.41 -2470.52)
(-209545 4738.45 -2760.63)
(-208701 4715.2 -3056.47)
(-207594 4691.53 -3350.52)
(-206218 4669.72 -3635.95)
(-204580 4647.72 -3904.17)
(-202700 4626.37 -4146.63)
(-200607 4604.56 -4356.88)
(-198346 4581.81 -4530.24)
(-195956 4558.5 -4665.49)
(-193480 4534.4 -4762.38)
(-190949 4510.3 -4822.48)
(-188396 4485.98 -4847.29)
(-185840 4462.27 -4838.85)
(-183302 4439.4 -4799.03)
(-180792 4417.92 -4729.7)
(-178313 4398.61 -4632.89)
(-175871 4381.36 -4511.77)
(-173455 4365.44 -4370.07)
(-171056 4349.83 -4210.12)
(-168662 4338.1 -4033.15)
(-166249 4333.16 -3843.76)
(-163789 4330.5 -3643.15)
(-161246 4325.92 -3430.8)
(-158602 4310.01 -3209.09)
(-155824 4281.27 -2975.68)
(-152841 4243 -2713.92)
(-149598 4197.29 -2390.7)
(-146258 4149.63 -1947.62)
(-143323 4110.69 -1321.24)
(-141000 4095.39 -518.281)
(-137464 4147.37 505.27)
(-129102 4439.88 2238.14)
(-117487 5624.1 6080.77)
(-122694 9009.69 9701.58)
(-152856 10514.3 11344.5)
(-187868 5997.4 4182.91)
(10350.8 8643.35 -21250)
(-263418 -1737.35 6641.55)
(-264580 -1758.75 5878.42)
(-265084 -1806.82 5742.03)
(-265649 -1771.02 5406.97)
(-265995 -1771.72 5176.98)
(-266401 -1765.18 5052.64)
(-266736 -1762.12 4932.54)
(-267017 -1758.04 4827.41)
(-267273 -1758.65 4717.23)
(-267502 -1762.3 4596.47)
(-267700 -1772.42 4458.11)
(-267864 -1788.48 4294.22)
(-267983 -1810.65 4102.61)
(-268052 -1837.86 3888.17)
(-268076 -1869.37 3661.71)
(-268093 -1900.69 3430.77)
(-268108 -1934.78 3195.93)
(-268080 -1969.75 2954.23)
(-268011 -2006.09 2713.18)
(-267912 -2040.1 2482.46)
(-267782 -2074.11 2274.51)
(-267625 -2106.46 2097.62)
(-267454 -2137.3 1967.26)
(-267289 -2166.78 1891.04)
(-267159 -2194.71 1875.44)
(-267078 -2220.83 1919.72)
(-267069 -2244.34 2022.07)
(-267133 -2264.76 2177.45)
(-267280 -2281.21 2382.06)
(-267506 -2293.11 2630.97)
(-267819 -2299.35 2921.29)
(-268217 -2299.08 3250.97)
(-268708 -2290.64 3620.12)
(-269303 -2273.55 4030.03)
(-270009 -2246.95 4480.85)
(-270848 -2207.59 4973.35)
(-271848 -2150.19 5507.41)
(-273054 -2075.81 6081.87)
(-274493 -1988.74 6681.65)
(-276168 -1889.78 7286.21)
(-278104 -1774.56 7894.89)
(-280422 -1637.25 8522.96)
(-283159 -1476.32 9188.53)
(-286402 -1285.36 9923.41)
(-290389 -1049.5 10758.1)
(-295593 -740.968 11688.9)
(-302499 -323.077 12615.4)
(-310299 244.297 13434.4)
(-316219 1077.24 14667.8)
(-322612 2507.15 17085.2)
(-335522 4914.04 19704.3)
(-397891 6027.1 14839.4)
(-418027 3798.46 1095.13)
(-424784 14208.5 -27841.7)
(-309967 2241.79 4408.62)
(-310381 2136.77 3786.62)
(-310611 2063.44 3496.18)
(-310869 2057.01 3299.5)
(-311105 2030.1 3098.85)
(-311406 2012.49 2982.54)
(-311694 1995.58 2879.53)
(-311978 1983.55 2787.59)
(-312281 1971.13 2688.43)
(-312598 1960.37 2581.5)
(-312928 1949 2459.93)
(-313266 1938.39 2316.66)
(-313603 1929.25 2148.68)
(-313937 1923.93 1959.23)
(-314271 1923.5 1754.7)
(-314593 1930.37 1538.82)
(-314888 1934.48 1312.04)
(-315159 1935.73 1072.08)
(-315407 1935.35 824.026)
(-315630 1936.12 577.105)
(-315828 1936.27 340.307)
(-316002 1937.41 125.92)
(-316160 1939.46 -54.6237)
(-316315 1942.46 -192.554)
(-316485 1946.37 -282.912)
(-316677 1951.61 -325.987)
(-316902 1958.28 -324.154)
(-317154 1966.68 -282.323)
(-317432 1976.77 -204.907)
(-317723 1988.64 -97.1195)
(-318021 2002.24 37.4639)
(-318312 2017.43 195.863)
(-318587 2034.55 376.879)
(-318838 2052.77 581.341)
(-319061 2071.5 811.851)
(-319259 2091.34 1070.66)
(-319418 2114.59 1356.41)
(-319525 2140.27 1662.21)
(-319583 2166.15 1981.39)
(-319598 2192.65 2307.82)
(-319575 2223.28 2638.01)
(-319528 2255.07 2974.42)
(-319459 2286.78 3328.38)
(-319391 2318.99 3722.47)
(-319476 2357.68 4185.31)
(-320027 2410.82 4727.15)
(-321148 2473.58 5317.27)
(-321886 2517.34 5993.72)
(-319628 2603.71 7156.31)
(-315458 2909.74 9270.94)
(-314209 3626.27 11489)
(-335951 -4024.3 14850.7)
(-311902 -585.733 7825.38)
(-299322 -8907.03 11659.8)
(-231119 -2685.64 1473.52)
(-229090 -2746.13 484.469)
(-228537 -2876.82 116.519)
(-227858 -2868.34 -153.518)
(-227313 -2898.68 -436.743)
(-226896 -2931.69 -659.468)
(-226578 -2962.59 -833.924)
(-226337 -2987.3 -999.228)
(-226166 -3013.96 -1168.68)
(-226058 -3038.92 -1349.94)
(-226007 -3064.41 -1556.04)
(-226006 -3089.39 -1795.16)
(-226035 -3115.36 -2073.59)
(-226076 -3143.91 -2394.01)
(-226109 -3179.89 -2758.18)
(-226020 -3222.09 -3165.84)
(-225740 -3263.74 -3624.47)
(-225269 -3300.4 -4121.36)
(-224592 -3336.29 -4645.9)
(-223691 -3369.73 -5177.66)
(-222563 -3400.42 -5704.33)
(-221215 -3423.44 -6200.02)
(-219669 -3439.97 -6643.73)
(-217973 -3448.54 -7017.08)
(-216181 -3450.12 -7310.27)
(-214350 -3445.17 -7523.59)
(-212526 -3435.27 -7661.95)
(-210745 -3422.38 -7735.88)
(-209033 -3408.67 -7755.68)
(-207403 -3396.32 -7734.21)
(-205859 -3387.09 -7681.76)
(-204391 -3383.08 -7607.35)
(-202988 -3386.39 -7514.6)
(-201620 -3397.66 -7407.95)
(-200261 -3415.03 -7291.4)
(-198876 -3439.16 -7167.81)
(-197424 -3473.41 -7044.15)
(-195833 -3520.61 -6935.67)
(-194033 -3573.71 -6847.09)
(-192014 -3625.26 -6774.11)
(-189746 -3670.1 -6711.25)
(-187178 -3702.86 -6656.5)
(-184224 -3716.84 -6591)
(-180820 -3700.26 -6491.82)
(-177089 -3619.84 -6352.28)
(-173564 -3429.94 -6179.62)
(-170286 -3031.17 -6121.26)
(-165221 -2252.55 -6359.94)
(-154337 -799.742 -6878.98)
(-138959 1936.9 -7271.37)
(-140496 8353.43 -5199.54)
(-179805 14536 -2355.05)
(-207864 29793.2 -3980.42)
(-78451.2 12722.5 -4665.18)
(-260829 3063.89 1934.87)
(-259658 3103.75 1263.1)
(-259227 3033.91 1046.52)
(-258731 3093.61 879.89)
(-258429 3114.1 715.477)
(-258191 3129.33 583.312)
(-258012 3144.36 496.177)
(-257885 3162.56 408.844)
(-257806 3176.57 313.107)
(-257767 3189.06 201.668)
(-257766 3197.71 64.5557)
(-257801 3202.62 -106.082)
(-257859 3201.7 -317.076)
(-257939 3192.75 -573.859)
(-258031 3171.88 -876.89)
(-258125 3141.02 -1221.2)
(-258155 3108.1 -1602.81)
(-258100 3076.19 -2014.82)
(-257948 3041.96 -2445.92)
(-257695 3009.19 -2881.11)
(-257336 2978.82 -3302.73)
(-256875 2955.33 -3690.05)
(-256323 2937.5 -4023.07)
(-255710 2926.52 -4286.37)
(-255067 2921.04 -4472.44)
(-254428 2920.31 -4582.97)
(-253816 2922.72 -4624.71)
(-253249 2926.29 -4609.44)
(-252735 2928.8 -4549.11)
(-252276 2928.15 -4456.97)
(-251868 2922.56 -4344.35)
(-251497 2910.21 -4221.33)
(-251147 2889.65 -4095.13)
(-250794 2861.39 -3970.25)
(-250394 2827.91 -3853.31)
(-249891 2788.63 -3751.27)
(-249234 2738.19 -3663.88)
(-248366 2674.27 -3581.32)
(-247261 2602.13 -3494.82)
(-245881 2526.08 -3406.34)
(-244181 2446.63 -3314.06)
(-242101 2364.08 -3208.37)
(-239538 2279 -3075.93)
(-236401 2193.89 -2900.19)
(-232737 2125.25 -2677.02)
(-228780 2108.18 -2441.06)
(-224461 2204.64 -2274.35)
(-217862 2524.58 -2232.66)
(-205736 3214.09 -1962.46)
(-190113 4496.78 -961.652)
(-190585 7078.38 1119.11)
(-202011 6438.64 3318.16)
(-223005 1364.05 6002.62)
(25089.1 10378.8 -4067.34)
(-257726 -3107.6 4274.73)
(-258469 -3187.91 4037.61)
(-258797 -3245.79 3909.25)
(-259268 -3270.2 3878.87)
(-259742 -3300.83 3839.3)
(-260203 -3338.09 3804.8)
(-260657 -3369.54 3774.61)
(-261105 -3400.84 3739.51)
(-261543 -3434.75 3686.7)
(-261961 -3469.21 3603.26)
(-262346 -3505.7 3476.83)
(-262684 -3543.32 3301.34)
(-262948 -3582.74 3066.7)
(-263126 -3625.46 2763.9)
(-263208 -3670.96 2387.79)
(-263217 -3721.72 1951.29)
(-263149 -3776.43 1473.15)
(-262988 -3837.33 968.589)
(-262727 -3901.83 451.849)
(-262362 -3971.36 -52.5892)
(-261892 -4042.48 -521.04)
(-261319 -4115.45 -919.255)
(-260667 -4188.65 -1221.09)
(-259973 -4261.8 -1402.17)
(-259287 -4334.53 -1456.51)
(-258655 -4406.54 -1389.49)
(-258114 -4478.52 -1217.8)
(-257693 -4551.74 -963.155)
(-257415 -4628.28 -648.712)
(-257295 -4709.82 -296.939)
(-257348 -4798.32 73.8642)
(-257581 -4896.27 448.572)
(-258005 -5006.97 817.519)
(-258633 -5131.35 1173.41)
(-259477 -5270.33 1513.65)
(-260550 -5424.87 1839.2)
(-261869 -5591.67 2151.82)
(-263468 -5763.39 2456.18)
(-265391 -5941.16 2770.6)
(-267646 -6130.29 3108.67)
(-270241 -6333.48 3486.1)
(-273209 -6554.6 3942.4)
(-276538 -6803.96 4510.68)
(-280259 -7093.81 5229.78)
(-284601 -7439.45 6138.22)
(-290180 -7847.65 7287.74)
(-297434 -8311.93 8740.93)
(-305106 -8805.27 10511.7)
(-309478 -9094.72 12381.5)
(-312611 -9267.13 14937)
(-328434 -9269.17 19504.3)
(-386310 -10061.8 24268.4)
(-402681 -2393.26 5019.22)
(-376675 44169.9 -64870.8)
(-257883 3048.99 3587.44)
(-257677 2988.83 3259.07)
(-257608 2938.82 3217.95)
(-257605 2922.64 3145.56)
(-257707 2898.38 3101.64)
(-257823 2866.09 3065.68)
(-257963 2839.93 3035.91)
(-258147 2814.29 2998.53)
(-258367 2786.47 2950.79)
(-258614 2758.5 2878.17)
(-258885 2729.12 2769.9)
(-259167 2699.49 2619.9)
(-259444 2669.25 2421.81)
(-259705 2637.07 2168.72)
(-259943 2603.94 1857.67)
(-260156 2567.07 1492.5)
(-260346 2527.71 1082.82)
(-260508 2483.61 642.303)
(-260644 2437.42 187.572)
(-260754 2387.73 -263.572)
(-260834 2338.21 -687.531)
(-260891 2288.7 -1057.85)
(-260940 2241.01 -1347.13)
(-261007 2195.63 -1536.07)
(-261120 2153.24 -1617.87)
(-261299 2114.59 -1599.2)
(-261546 2079.59 -1495.74)
(-261851 2047.54 -1328.52)
(-262200 2016.95 -1119.18)
(-262568 1986.6 -888.385)
(-262937 1954.58 -653.495)
(-263282 1918.42 -428.492)
(-263588 1874.64 -222.585)
(-263842 1822 -42.5528)
(-264039 1759.51 108.035)
(-264199 1686.04 232.974)
(-264334 1601.47 337.581)
(-264457 1508.53 426.365)
(-264551 1404.38 509.215)
(-264602 1284.7 598.382)
(-264601 1148.57 709.893)
(-264522 993.991 862.838)
(-264311 812.123 1078.75)
(-263923 587.124 1375.53)
(-263499 294.853 1777.54)
(-263516 -78.3864 2308.75)
(-264125 -533.926 2968.18)
(-263780 -1075.77 3700.12)
(-259181 -1513.29 4280.11)
(-251075 -2127.28 4510.83)
(-251427 -3250.6 3922.33)
(-276711 -11636.8 8109.4)
(-241642 1844.94 -16386.2)
(-142307 -4703.61 -17191)
(-241590 -2889.95 1467.92)
(-241182 -2968.92 1110.67)
(-241042 -2969.44 980.276)
(-240905 -2969.96 848.61)
(-240879 -2974.33 765.826)
(-240895 -2982.66 702.462)
(-240961 -2991.74 647.418)
(-241071 -3002.76 587.16)
(-241227 -3013.06 512.59)
(-241423 -3021.32 404.928)
(-241651 -3028.5 248.362)
(-241903 -3034.41 36.9649)
(-242167 -3037.43 -238.865)
(-242434 -3037.66 -588.19)
(-242684 -3036 -1014.52)
(-242892 -3037.18 -1524.24)
(-243000 -3041.21 -2115.82)
(-242996 -3049.77 -2775.42)
(-242860 -3065.18 -3476.9)
(-242576 -3092.37 -4199.86)
(-242131 -3131 -4906.44)
(-241519 -3184.66 -5556.57)
(-240758 -3252.34 -6099.02)
(-239890 -3335.88 -6495.94)
(-238975 -3432.1 -6729.96)
(-238063 -3538.46 -6807.09)
(-237195 -3650.7 -6750.01)
(-236395 -3765.31 -6589.77)
(-235679 -3879.04 -6361.17)
(-235060 -3990.85 -6095.15)
(-234540 -4100.17 -5817.54)
(-234118 -4206.45 -5549.83)
(-233791 -4309.52 -5309.43)
(-233558 -4408.05 -5107.09)
(-233416 -4498.98 -4948.69)
(-233363 -4577.22 -4837.88)
(-233403 -4642.28 -4778.22)
(-233523 -4695.66 -4775.59)
(-233713 -4735.9 -4822.22)
(-234001 -4758.82 -4905.02)
(-234428 -4768.17 -5016.11)
(-234995 -4763.1 -5147.08)
(-235711 -4744.14 -5287.24)
(-236620 -4711.56 -5429.3)
(-237981 -4674.15 -5587.58)
(-240479 -4642.89 -5747.59)
(-244619 -4612.62 -5885.55)
(-249180 -4595 -6081.65)
(-250431 -4413.09 -6142.81)
(-250020 -4539.46 -6031.94)
(-267979 -6337.51 -6019.02)
(-334570 -11388 -7411.74)
(-388014 1451.82 19847.4)
(-466840 586.655 26991.4)
(-229490 3365.49 1442.02)
(-228984 3309.76 1120)
(-228895 3324.9 1074.45)
(-228822 3342.47 968.293)
(-228904 3355.79 925.761)
(-229028 3365.23 917.096)
(-229205 3374.34 914.832)
(-229425 3381.8 905.742)
(-229684 3390.43 884.287)
(-229973 3401.61 830.762)
(-230280 3414.31 731.133)
(-230583 3428.68 574.416)
(-230865 3446.43 349.096)
(-231100 3467.58 43.775)
(-231261 3491.08 -349.607)
(-231304 3513.96 -833.804)
(-231192 3537.04 -1405.39)
(-230879 3560.05 -2049)
(-230340 3581.13 -2741.59)
(-229559 3595.79 -3457.31)
(-228525 3604.93 -4163.76)
(-227244 3604.89 -4816.99)
(-225750 3596.11 -5367.27)
(-224112 3575.28 -5774.69)
(-222418 3543.44 -6022.29)
(-220755 3500.41 -6116.85)
(-219191 3447.63 -6082.26)
(-217775 3386.01 -5951.43)
(-216535 3316.67 -5761.24)
(-215480 3243.33 -5544.96)
(-214605 3168.73 -5329.37)
(-213892 3094.51 -5136.38)
(-213314 3022.08 -4981.84)
(-212836 2954.47 -4877.92)
(-212420 2898.25 -4832.61)
(-212013 2862.08 -4851.05)
(-211540 2847.98 -4937.73)
(-210962 2851.96 -5101.42)
(-210244 2877.82 -5342.92)
(-209370 2933.22 -5659.06)
(-208325 3020.56 -6042.72)
(-207073 3143.3 -6480.55)
(-205558 3305.49 -6956.91)
(-203738 3502.06 -7469.68)
(-201752 3730.47 -8025.55)
(-200069 3989.37 -8626.48)
(-198863 4278.8 -9240.12)
(-196127 4586.65 -9872.94)
(-187882 5098.41 -10706.6)
(-174764 5378.16 -12495.5)
(-176388 3642.4 -12052.5)
(-209780 -4549.44 -135.044)
(-254383 6347.51 43323.9)
(-189340 -10332.1 23217.9)
(-233852 -2312.06 3029.78)
(-233656 -2338.65 2937.91)
(-233675 -2325.25 2989.16)
(-233738 -2328.67 3004.52)
(-233895 -2331.1 3043.3)
(-234113 -2329.59 3077.62)
(-234391 -2324.87 3104.38)
(-234723 -2321.69 3112.89)
(-235115 -2318.74 3093.37)
(-235563 -2313.08 3027.82)
(-236047 -2302.95 2899.35)
(-236545 -2290.87 2692.68)
(-237039 -2277.57 2392.52)
(-237504 -2264.54 1986.25)
(-237916 -2255.17 1470.41)
(-238252 -2251.21 852.168)
(-238483 -2254.23 151.94)
(-238582 -2262.41 -608.81)
(-238529 -2275.84 -1403.7)
(-238314 -2292.19 -2209.24)
(-237922 -2314.87 -2989.1)
(-237353 -2343.16 -3697.07)
(-236641 -2380.5 -4265.6)
(-235864 -2428.2 -4646.85)
(-235111 -2488.31 -4822.46)
(-234449 -2560.65 -4816.18)
(-233909 -2643.7 -4670.58)
(-233489 -2734.98 -4436.47)
(-233169 -2830.65 -4160.35)
(-232916 -2926.56 -3878.82)
(-232697 -3018.59 -3617.07)
(-232482 -3103.88 -3390.66)
(-232244 -3179.7 -3207.63)
(-231962 -3244.87 -3068.41)
(-231621 -3299.71 -2968.07)
(-231209 -3345.81 -2898.97)
(-230718 -3381.48 -2854.52)
(-230151 -3408.57 -2839.55)
(-229525 -3431.13 -2829.85)
(-228819 -3455.95 -2813.41)
(-228011 -3486.87 -2775.73)
(-227066 -3528.1 -2697.18)
(-225921 -3580.18 -2564.7)
(-224523 -3641.89 -2388.82)
(-223015 -3715.42 -2210.2)
(-221824 -3787.17 -2023.52)
(-221139 -3826.16 -1865.61)
(-219164 -3719.77 -1804.87)
(-212475 -3507.35 -1853.3)
(-199448 -3373.95 -2701.84)
(-193090 -2632.43 -2498.6)
(-205656 2118.54 4169.35)
(-251026 23173.9 56397.4)
(-169414 17362.1 17430.8)
(-247148 3326.6 3145.89)
(-247576 3323.4 3202.99)
(-247767 3340.29 3265.56)
(-248078 3344.58 3289.59)
(-248409 3348 3337.2)
(-248756 3353.66 3386.26)
(-249124 3360.75 3426.14)
(-249502 3364.67 3442.84)
(-249885 3366.44 3422.21)
(-250265 3368.64 3347.59)
(-250622 3372.76 3202.61)
(-250936 3376.29 2970.02)
(-251180 3378.48 2632.79)
(-251330 3377.79 2177.18)
(-251358 3371.31 1599.04)
(-251237 3357.56 907.27)
(-250943 3333.25 120.039)
(-250475 3298.76 -736.527)
(-249848 3254.42 -1633.46)
(-249043 3203.4 -2544.87)
(-248046 3143.92 -3436.68)
(-246848 3078.67 -4255.56)
(-245473 3007.04 -4934.22)
(-243983 2930.65 -5415.12)
(-242458 2849.88 -5676.8)
(-240965 2765.98 -5735.06)
(-239545 2679.88 -5630.77)
(-238219 2591.96 -5414.64)
(-236990 2503.03 -5136.31)
(-235852 2413.66 -4837.4)
(-234795 2324.27 -4548.18)
(-233809 2234.76 -4288.86)
(-232883 2145.2 -4071.4)
(-232010 2054.73 -3901.11)
(-231188 1962.11 -3778.96)
(-230422 1865.89 -3702.39)
(-229729 1767.62 -3663.25)
(-229097 1668.78 -3653.26)
(-228496 1565.58 -3662.96)
(-227907 1450.79 -3687.5)
(-227309 1320.94 -3723.51)
(-226660 1172.41 -3765.79)
(-225880 1003.1 -3817.51)
(-224905 815.172 -3893.87)
(-223857 613.63 -4014.31)
(-223145 410.392 -4178.49)
(-222918 242.772 -4374.83)
(-221377 206.316 -4686.53)
(-214846 253.467 -5450.89)
(-203237 165.122 -7046.08)
(-200069 207.464 -6989.46)
(-212429 249.596 -1483.25)
(-192041 12892.7 36022.4)
(-9130.58 11079.6 25083.6)
(-225289 -1986.46 399.414)
(-225564 -2012.31 358.818)
(-225890 -2041.93 434.729)
(-226313 -2082.37 490.295)
(-226832 -2120.78 558.302)
(-227424 -2152.64 628.405)
(-228080 -2182.92 694.814)
(-228796 -2216.36 747.609)
(-229576 -2254.86 769.8)
(-230414 -2295.92 746.31)
(-231289 -2340.14 663.634)
(-232175 -2389.26 499.021)
(-233039 -2443.2 231.389)
(-233843 -2501.3 -156.159)
(-234540 -2562.35 -675.236)
(-235062 -2621.95 -1328.31)
(-235347 -2675.3 -2105.49)
(-235342 -2716.87 -2977.67)
(-235006 -2744.85 -3915.88)
(-234302 -2756.63 -4886.22)
(-233183 -2751.28 -5855.6)
(-231604 -2721.93 -6749.42)
(-229594 -2666.39 -7455.06)
(-227283 -2580.15 -7854.34)
(-224873 -2466.73 -7904.8)
(-222562 -2329.99 -7647.4)
(-220494 -2179.43 -7169.03)
(-218755 -2025.03 -6563.52)
(-217372 -1876.4 -5910.93)
(-216335 -1741.39 -5269.89)
(-215605 -1625.31 -4677.72)
(-215134 -1531.54 -4155.27)
(-214868 -1461.27 -3710.54)
(-214756 -1414.84 -3344.53)
(-214746 -1392.02 -3053.11)
(-214791 -1392.35 -2832.42)
(-214848 -1416.43 -2678.94)
(-214868 -1471.82 -2602)
(-214801 -1554.12 -2585.62)
(-214618 -1663.89 -2630.12)
(-214291 -1801.68 -2725.88)
(-213763 -1969.02 -2861.12)
(-212954 -2163.66 -3036.13)
(-211815 -2384.74 -3253.42)
(-210507 -2628.64 -3513.35)
(-209490 -2881.44 -3811.22)
(-208911 -3127.11 -4174.75)
(-206952 -3310.33 -4547.6)
(-199605 -3404.2 -5304.09)
(-185672 -3660.82 -6062.8)
(-178438 -3512.82 -4418.38)
(-183508 -140.627 -4283.58)
(-173733 5889.74 18035.3)
(-3260.78 5176.02 6239.66)
(-235154 4135.84 3310.14)
(-234912 4224.9 3339.51)
(-234733 4241.67 3371.3)
(-234582 4259.58 3392.76)
(-234462 4273.65 3422.6)
(-234358 4290.03 3450.84)
(-234270 4303.9 3467.43)
(-234194 4309.97 3465.18)
(-234131 4305.81 3428.14)
(-234080 4293.13 3341.2)
(-234033 4270.75 3188.57)
(-233982 4236.08 2950.96)
(-233916 4187.93 2609.44)
(-233818 4126.23 2149.46)
(-233671 4051.31 1563.14)
(-233444 3965.24 848.091)
(-233097 3871.76 12.7385)
(-232587 3772.78 -924.004)
(-231850 3668.56 -1937.91)
(-230851 3557.99 -3013.69)
(-229552 3438.07 -4118.43)
(-227919 3312.66 -5189.06)
(-225981 3182.47 -6117.48)
(-223850 3052.88 -6791.37)
(-221686 2924.99 -7159.64)
(-219631 2801.92 -7249)
(-217774 2681.99 -7129.49)
(-216150 2562.34 -6879.74)
(-214757 2439.12 -6569.39)
(-213566 2308.57 -6250.05)
(-212535 2167.81 -5955.15)
(-211618 2014.9 -5702.53)
(-210773 1848.9 -5499.8)
(-209960 1669.37 -5345.97)
(-209142 1475.61 -5235.19)
(-208287 1267.44 -5160.44)
(-207359 1040.87 -5120.03)
(-206344 790.266 -5131.63)
(-205237 515.065 -5187.19)
(-204019 214.881 -5274.81)
(-202664 -112.112 -5380.78)
(-201121 -469.464 -5491.69)
(-199306 -858.896 -5597.96)
(-197155 -1279.32 -5700.96)
(-194794 -1728.74 -5820.11)
(-192657 -2193.5 -6001)
(-190862 -2637.95 -6368.86)
(-187456 -3029.74 -7026.89)
(-178322 -3367.71 -8058.86)
(-162970 -3687.63 -9228.92)
(-156736 -2575.43 -10532.8)
(-189146 11.1667 -7771.25)
(-154748 3561.59 1862.77)
(53735.4 3075.54 3378.92)
(-239523 -3695.66 530.068)
(-239951 -3806.78 818.697)
(-240370 -3871.35 993.873)
(-240894 -3961.39 1205.61)
(-241509 -4041.43 1407.81)
(-242196 -4113.99 1615.73)
(-242956 -4183.9 1816.85)
(-243794 -4252.6 1993.5)
(-244714 -4317.78 2123.59)
(-245706 -4376.52 2187.94)
(-246751 -4429.51 2161.38)
(-247832 -4476.12 2013.51)
(-248920 -4514.91 1715.14)
(-249979 -4544.66 1242.85)
(-250972 -4565.64 579.713)
(-251853 -4578.72 -276.855)
(-252576 -4584.47 -1315.1)
(-253105 -4586.46 -2505.51)
(-253407 -4586.16 -3804.98)
(-253451 -4591.01 -5172.49)
(-253155 -4603.45 -6579.48)
(-252406 -4630.35 -7943.1)
(-251144 -4674.83 -9081.73)
(-249447 -4740.11 -9765.48)
(-247506 -4819.78 -9889.97)
(-245512 -4904.78 -9520.02)
(-243604 -4986.26 -8805.71)
(-241868 -5059.49 -7894.88)
(-240357 -5124.45 -6911.78)
(-239092 -5183.81 -5942.44)
(-238075 -5241.57 -5038.45)
(-237292 -5301.36 -4224.09)
(-236722 -5366.47 -3505.38)
(-236336 -5439.03 -2877.68)
(-236102 -5520.03 -2331.52)
(-235987 -5609.38 -1857.66)
(-235952 -5707.01 -1447.75)
(-235958 -5812.15 -1094.59)
(-235965 -5929.94 -791.107)
(-235927 -6066.02 -535.981)
(-235788 -6223 -345.13)
(-235472 -6405.28 -225.106)
(-234871 -6616.57 -187.252)
(-233899 -6863.93 -255.876)
(-232663 -7164.69 -481.053)
(-231571 -7555.7 -942.364)
(-230793 -8118.16 -1780.22)
(-228675 -8928.26 -3135.21)
(-221063 -10133.7 -5066.2)
(-207867 -11469.2 -7570.68)
(-202192 -12837.2 -12678.4)
(-209335 -14243.9 -15578.8)
(-203463 -34979.6 7848.14)
(5113.66 -1812.77 -19016.4)
(-231219 3835.11 4301.2)
(-231403 3908.78 4456.92)
(-231559 3928.32 4557.74)
(-231796 3940.82 4682.66)
(-232072 3956.32 4811.03)
(-232399 3976.75 4944.7)
(-232779 3997.15 5072.37)
(-233210 4015.59 5182.04)
(-233695 4034.29 5257.88)
(-234228 4057.52 5279.52)
(-234796 4086.63 5222.44)
(-235380 4123.24 5058.12)
(-235952 4168.51 4756.5)
(-236471 4222.85 4289.94)
(-236887 4286.24 3636.21)
(-237139 4357.31 2782.38)
(-237159 4435.64 1731.29)
(-236888 4515.77 507.187)
(-236284 4583.61 -830.732)
(-235296 4622.97 -2232.35)
(-233849 4634.63 -3664.57)
(-231830 4611.29 -5045.91)
(-229198 4547.56 -6187.15)
(-226076 4439.45 -6858.31)
(-222718 4297.3 -6946.79)
(-219370 4138.41 -6521.56)
(-216199 3978.87 -5732.44)
(-213292 3829.62 -4732.24)
(-210677 3695.2 -3651.11)
(-208347 3575.5 -2581.31)
(-206279 3467.74 -1580.54)
(-204443 3368.22 -679.826)
(-202813 3272.85 106.476)
(-201368 3178.44 774.793)
(-200088 3080.47 1325.6)
(-198961 2976.1 1762.94)
(-197968 2858.93 2096.27)
(-197102 2730.34 2346.66)
(-196352 2590.75 2516.83)
(-195720 2439.39 2607.89)
(-195217 2281.04 2618.03)
(-194838 2118.74 2537.93)
(-194556 1950.85 2345.2)
(-194374 1771.59 1993.66)
(-194518 1563.35 1387.52)
(-195653 1277.85 338.359)
(-198242 805.06 -1483.12)
(-200589 34.2515 -4581.38)
(-196563 -1035.12 -9750.28)
(-183264 -2602.4 -16954.9)
(-177986 -6688.74 -27458.8)
(-209714 -10355.6 -46229.3)
(-207543 -15682.9 -89840)
(-56877 -1151 -28930.9)
(-232811 -4318.99 1229.16)
(-232666 -4409.16 1660.25)
(-232786 -4433.27 1852.86)
(-232933 -4486.9 2109.62)
(-233190 -4517.75 2355.14)
(-233512 -4540.08 2606.67)
(-233918 -4556.47 2850.63)
(-234417 -4565.58 3069.96)
(-235016 -4562.71 3251.02)
(-235713 -4546.88 3377.39)
(-236504 -4518.55 3418.85)
(-237378 -4478.28 3340.84)
(-238315 -4426.85 3105.28)
(-239284 -4366.22 2674.64)
(-240241 -4298.43 2016.63)
(-241143 -4227.43 1118.21)
(-241938 -4157.1 -8.23508)
(-242601 -4090.65 -1330.17)
(-243139 -4030 -2785.89)
(-243585 -3973.87 -4329.95)
(-243904 -3918.37 -5948.87)
(-243954 -3868.13 -7588.93)
(-243657 -3830.75 -8995.77)
(-243197 -3822.67 -9780.23)
(-242917 -3849.36 -9725.97)
(-243001 -3908.79 -8961.81)
(-243405 -3986.02 -7737.95)
(-244000 -4068.61 -6269.41)
(-244657 -4146.71 -4726.89)
(-245276 -4215.25 -3215.64)
(-245792 -4273.32 -1794.18)
(-246172 -4323.06 -486.52)
(-246405 -4369.06 702.842)
(-246499 -4416.9 1781.03)
(-246468 -4471.76 2760.58)
(-246337 -4538.47 3655.2)
(-246140 -4621.87 4478.18)
(-245908 -4724.35 5241)
(-245688 -4849.15 5971.06)
(-245521 -5003.26 6700.23)
(-245442 -5188.6 7437.22)
(-245481 -5402.88 8190.75)
(-245664 -5642.26 8961.21)
(-246073 -5905.16 9734.06)
(-246992 -6193.31 10466.9)
(-249077 -6521.17 11048)
(-252856 -6927.92 11257.9)
(-257166 -7501.95 10752.6)
(-257577 -8111.93 8774.24)
(-251948 -8967.3 3776.46)
(-247520 -11750.2 -7776.71)
(-272459 -18923.9 -22628.4)
(-220098 -15558.4 -83953.1)
(-105493 -6599.21 -30751.1)
(-241532 4758.22 4405.05)
(-241724 4888.55 4620.17)
(-241890 4963.81 4700.24)
(-242150 5040.04 4830.92)
(-242451 5130.25 4950.07)
(-242816 5229.74 5060.59)
(-243246 5333.91 5158)
(-243745 5443.66 5228.25)
(-244320 5562.88 5257.08)
(-244972 5692.08 5224.66)
(-245696 5829.92 5103.27)
(-246479 5974.6 4860.35)
(-247294 6123.65 4460.44)
(-248104 6273.03 3869.17)
(-248855 6418.27 3057.4)
(-249478 6554.6 2006)
(-249894 6676.65 713.903)
(-250026 6783.18 -789.722)
(-249850 6881.13 -2441.12)
(-249394 6980.82 -4218.37)
(-248581 7083.88 -6115.95)
(-247227 7185.26 -8081.26)
(-245201 7274.92 -9868.55)
(-242652 7329.57 -11072.4)
(-239968 7333.6 -11442.3)
(-237483 7280.78 -11070.5)
(-235338 7182.84 -10195.6)
(-233562 7053.09 -9034.48)
(-232130 6904.75 -7766.61)
(-230991 6747.68 -6506.51)
(-230092 6587.22 -5318.59)
(-229385 6424.63 -4230.92)
(-228833 6258.46 -3251.35)
(-228410 6086.09 -2376.14)
(-228096 5904.64 -1590.09)
(-227881 5711.48 -873.455)
(-227763 5504.57 -213.509)
(-227736 5283.09 399.536)
(-227806 5046.35 979.2)
(-227990 4796.14 1538.93)
(-228305 4537.21 2099.45)
(-228762 4277.81 2676.67)
(-229373 4030.46 3275.05)
(-230205 3809.48 3893.71)
(-231562 3625.56 4511.52)
(-234175 3472.16 5042.67)
(-238684 3333.72 5281.11)
(-243983 3198.39 4792.18)
(-245850 2904.56 2788.57)
(-243481 1942.4 -1887.86)
(-252413 237.776 -12967.1)
(-299664 -2503.9 -35421.2)
(-325365 -13676.9 -111258)
(-256393 -5971.3 -35127.6)
(-225810 -4636.64 -1340.84)
(-225135 -4585.46 -840.511)
(-224897 -4532.06 -557.505)
(-224626 -4488.26 -219.736)
(-224468 -4433.14 143.961)
(-224365 -4382.33 534.335)
(-224346 -4332.11 944.516)
(-224417 -4283.12 1362.58)
(-224588 -4235.76 1772.22)
(-224866 -4193.01 2144.32)
(-225255 -4156.21 2434.34)
(-225746 -4126.97 2583.19)
(-226315 -4106.34 2520.03)
(-226923 -4094.49 2170.81)
(-227506 -4090.46 1468.85)
(-227975 -4091.87 373.023)
(-228206 -4098.67 -1116.55)
(-228019 -4108.12 -2949.57)
(-227359 -4119.35 -5002.28)
(-226250 -4132.16 -7172.17)
(-224631 -4152.09 -9469.74)
(-222164 -4178.58 -11943.3)
(-218460 -4215.39 -14304.4)
(-213736 -4259.39 -15803.2)
(-208984 -4307.99 -15868.7)
(-205198 -4358.9 -14787.7)
(-202692 -4412.83 -13245.5)
(-201339 -4475.07 -11645)
(-200863 -4547.7 -10200.7)
(-200962 -4628.95 -8982.84)
(-201396 -4714.25 -7999.92)
(-201996 -4797.59 -7228.77)
(-202659 -4874.19 -6637.41)
(-203330 -4940.7 -6194.15)
(-203984 -4991.53 -5872.51)
(-204623 -5018.6 -5651.69)
(-205262 -5017.19 -5513.27)
(-205924 -4984.55 -5443.68)
(-206628 -4913.37 -5420.32)
(-207407 -4796.39 -5417.93)
(-208314 -4632.39 -5412.7)
(-209379 -4419.07 -5361.68)
(-210624 -4149.7 -5215.69)
(-212132 -3814.46 -4920.74)
(-214265 -3399.16 -4412.13)
(-217868 -2879.24 -3618.77)
(-223713 -2234.55 -2469.94)
(-230524 -1394.48 -1086.55)
(-233980 -235.035 -229.233)
(-234435 1673.47 -1113.36)
(-251249 3985.95 -2782.24)
(-317211 4903.57 -8539.25)
(-368311 -4605.23 -56503.4)
(-232630 7719.87 -26435)
(-245751 5470.18 4279.33)
(-245268 5527.19 4653.83)
(-245034 5553.56 4867.42)
(-244813 5580.62 5137.56)
(-244659 5607.49 5419.84)
(-244569 5626.12 5724.84)
(-244553 5636.63 6053.57)
(-244626 5637.69 6394.04)
(-244800 5628.08 6729.44)
(-245088 5604.5 7034.36)
(-245499 5565.3 7270.42)
(-246030 5509.5 7385.81)
(-246662 5437.79 7317.61)
(-247359 5352.5 6998.62)
(-248065 5257.91 6365.87)
(-248699 5162 5371.78)
(-249155 5074.14 3998.76)
(-249325 5009.41 2285.27)
(-249174 4981.01 356.091)
(-248729 4999.95 -1683.98)
(-247946 5066.12 -3873.87)
(-246528 5190.89 -6268.58)
(-244158 5386.44 -8625.02)
(-241053 5662.48 -10287.5)
(-238029 6003.13 -10722.8)
(-235778 6367.18 -10144.2)
(-234419 6710.6 -9123.02)
(-233792 7008.41 -7995.75)
(-233675 7249.14 -6957.25)
(-233857 7435.36 -6080.7)
(-234188 7575.77 -5384.42)
(-234568 7679.49 -4856.47)
(-234945 7754.65 -4474.6)
(-235295 7807.61 -4213.4)
(-235642 7850 -4050.78)
(-236003 7892.11 -3971.66)
(-236372 7937.29 -3967.7)
(-236763 7986.88 -4022.21)
(-237194 8046.21 -4117.11)
(-237685 8123.42 -4247.34)
(-238273 8222.16 -4406.78)
(-239001 8348.56 -4596.1)
(-239918 8512.26 -4825.79)
(-241143 8725.04 -5108)
(-243053 9002.78 -5469.77)
(-246450 9369.1 -5952.08)
(-252136 9844.71 -6612.78)
(-259487 10472.6 -7686.61)
(-265209 11233 -9610.3)
(-269743 12263.6 -12708.4)
(-293420 13602.8 -16409.7)
(-383176 14859.9 -34966.2)
(-576494 1847.82 -64416.7)
(-405077 6223.07 -290.374)
(-238691 -4185.6 458.145)
(-238329 -4144.28 1134.42)
(-238065 -4101.71 1525.99)
(-237823 -4068.74 1965.12)
(-237629 -4035.14 2413.77)
(-237504 -4006.17 2870.97)