/*--------------------------------*- C++ -*----------------------------------*\
| =========                 |                                                 |
| \\      /  F ield         | OpenFOAM: The Open Source CFD Toolbox           |
|  \\    /   O peration     | Version:  4.1                                   |
|   \\  /    A nd           | Web:      www.OpenFOAM.org                      |
|    \\/     M anipulation  |                                                 |
\*---------------------------------------------------------------------------*/
FoamFile
{
    version     2.0;
    format      ascii;
    class       volScalarField;
    location    "30";
    object      p;
}
// * * * * * * * * * * * * * * * * * * * * * * * * * * * * * * * * * * * * * //

dimensions      [0 2 -2 0 0 0 0];

internalField   nonuniform List<scalar> 
4432
(
-2.6195e+10
-2.91265e+10
-2.50736e+10
-1.13229e+10
-1.3408e+10
-1.78415e+10
-1.65864e+10
-1.59725e+10
-1.57739e+10
-1.57126e+10
-1.5501e+10
-1.52395e+10
-1.50386e+10
-1.49311e+10
-1.49258e+10
-1.4926e+10
-1.48009e+10
-1.46265e+10
-1.44637e+10
-1.43224e+10
-1.4177e+10
-1.40316e+10
-1.38856e+10
-1.37403e+10
-1.35974e+10
-1.34585e+10
-1.33249e+10
-1.31973e+10
-1.30756e+10
-1.29593e+10
-1.28477e+10
-1.27413e+10
-1.26411e+10
-1.25474e+10
-1.24612e+10
-1.23866e+10
-1.23268e+10
-1.22867e+10
-1.22721e+10
-1.22884e+10
-1.23401e+10
-1.24272e+10
-1.25391e+10
-1.26545e+10
-1.27446e+10
-1.27654e+10
-1.26372e+10
-1.22604e+10
-1.15828e+10
-1.08376e+10
-1.09531e+10
-1.31425e+10
-1.5611e+10
-8.68361e+09
-2.42602e+10
-2.40162e+10
-2.1328e+10
-1.64479e+10
-1.35412e+10
-1.69886e+10
-1.68909e+10
-1.61729e+10
-1.59582e+10
-1.59215e+10
-1.56528e+10
-1.52946e+10
-1.50405e+10
-1.49417e+10
-1.49495e+10
-1.49414e+10
-1.48012e+10
-1.46239e+10
-1.44724e+10
-1.43337e+10
-1.41891e+10
-1.40453e+10
-1.39005e+10
-1.37563e+10
-1.36141e+10
-1.34755e+10
-1.33417e+10
-1.32134e+10
-1.30905e+10
-1.29724e+10
-1.28586e+10
-1.27496e+10
-1.26468e+10
-1.25513e+10
-1.24648e+10
-1.23897e+10
-1.23291e+10
-1.22884e+10
-1.22734e+10
-1.22898e+10
-1.23419e+10
-1.2429e+10
-1.25404e+10
-1.26531e+10
-1.2735e+10
-1.27382e+10
-1.25791e+10
-1.21461e+10
-1.13871e+10
-1.0538e+10
-1.06252e+10
-1.31637e+10
-1.62206e+10
-9.53783e+09
-2.08028e+10
-1.95385e+10
-1.77082e+10
-1.81475e+10
-1.46204e+10
-1.60019e+10
-1.74578e+10
-1.68078e+10
-1.6366e+10
-1.61802e+10
-1.57772e+10
-1.53978e+10
-1.50962e+10
-1.4896e+10
-1.48396e+10
-1.48816e+10
-1.48277e+10
-1.46588e+10
-1.44911e+10
-1.43361e+10
-1.41892e+10
-1.40429e+10
-1.38961e+10
-1.37492e+10
-1.36038e+10
-1.34619e+10
-1.33247e+10
-1.31936e+10
-1.30688e+10
-1.29504e+10
-1.28378e+10
-1.2732e+10
-1.2636e+10
-1.2548e+10
-1.2463e+10
-1.23879e+10
-1.23297e+10
-1.2293e+10
-1.22828e+10
-1.23014e+10
-1.2349e+10
-1.24229e+10
-1.25121e+10
-1.25912e+10
-1.26253e+10
-1.25785e+10
-1.23661e+10
-1.1858e+10
-1.10399e+10
-1.02735e+10
-1.07174e+10
-1.35879e+10
-1.58281e+10
-8.30821e+09
-2.10109e+10
-2.0097e+10
-1.79231e+10
-1.61205e+10
-1.46675e+10
-1.61573e+10
-1.74703e+10
-1.67082e+10
-1.64048e+10
-1.61936e+10
-1.58076e+10
-1.54049e+10
-1.50841e+10
-1.48892e+10
-1.48602e+10
-1.4925e+10
-1.48501e+10
-1.46595e+10
-1.45049e+10
-1.4355e+10
-1.42105e+10
-1.40656e+10
-1.39201e+10
-1.37746e+10
-1.36306e+10
-1.34897e+10
-1.33536e+10
-1.32233e+10
-1.30992e+10
-1.2981e+10
-1.2868e+10
-1.27605e+10
-1.26605e+10
-1.2569e+10
-1.24862e+10
-1.24143e+10
-1.2357e+10
-1.23214e+10
-1.23137e+10
-1.2335e+10
-1.23849e+10
-1.24601e+10
-1.25483e+10
-1.26235e+10
-1.2649e+10
-1.25792e+10
-1.23312e+10
-1.1792e+10
-1.09392e+10
-1.01476e+10
-1.07026e+10
-1.39501e+10
-1.6254e+10
-7.91134e+09
-1.9921e+10
-1.73266e+10
-1.41369e+10
-1.71548e+10
-1.47199e+10
-1.47537e+10
-1.58586e+10
-1.63249e+10
-1.64555e+10
-1.63242e+10
-1.5923e+10
-1.55367e+10
-1.51735e+10
-1.49043e+10
-1.48268e+10
-1.4853e+10
-1.47971e+10
-1.46477e+10
-1.44999e+10
-1.43505e+10
-1.42042e+10
-1.40572e+10
-1.39087e+10
-1.37589e+10
-1.36094e+10
-1.3462e+10
-1.33188e+10
-1.31812e+10
-1.305e+10
-1.29248e+10
-1.28035e+10
-1.2684e+10
-1.25704e+10
-1.24738e+10
-1.23903e+10
-1.23141e+10
-1.22594e+10
-1.22288e+10
-1.22273e+10
-1.22533e+10
-1.23062e+10
-1.23845e+10
-1.24765e+10
-1.25529e+10
-1.25744e+10
-1.24914e+10
-1.22236e+10
-1.16768e+10
-1.08428e+10
-1.00805e+10
-1.05106e+10
-1.32411e+10
-1.57137e+10
-8.06674e+09
-1.92433e+10
-1.84165e+10
-1.62061e+10
-1.45061e+10
-1.51116e+10
-1.56646e+10
-1.60818e+10
-1.61589e+10
-1.63947e+10
-1.62358e+10
-1.58531e+10
-1.54698e+10
-1.51401e+10
-1.49075e+10
-1.48409e+10
-1.48875e+10
-1.48107e+10
-1.46484e+10
-1.45049e+10
-1.43597e+10
-1.4216e+10
-1.40701e+10
-1.39225e+10
-1.37735e+10
-1.36248e+10
-1.34782e+10
-1.33356e+10
-1.31987e+10
-1.30683e+10
-1.29441e+10
-1.28242e+10
-1.2707e+10
-1.25958e+10
-1.24961e+10
-1.24086e+10
-1.23367e+10
-1.22841e+10
-1.2256e+10
-1.22566e+10
-1.22839e+10
-1.23361e+10
-1.24112e+10
-1.24958e+10
-1.25595e+10
-1.25594e+10
-1.24432e+10
-1.21339e+10
-1.15367e+10
-1.06445e+10
-9.85036e+09
-1.03735e+10
-1.34155e+10
-1.6333e+10
-9.64011e+09
-1.81136e+10
-1.78312e+10
-1.6292e+10
-1.52487e+10
-1.55919e+10
-1.54286e+10
-1.56723e+10
-1.59352e+10
-1.61566e+10
-1.60826e+10
-1.5778e+10
-1.54794e+10
-1.51889e+10
-1.49704e+10
-1.48939e+10
-1.48821e+10
-1.47979e+10
-1.46564e+10
-1.45187e+10
-1.43777e+10
-1.42351e+10
-1.40881e+10
-1.39376e+10
-1.37846e+10
-1.36312e+10
-1.34799e+10
-1.33331e+10
-1.31926e+10
-1.30582e+10
-1.2928e+10
-1.27979e+10
-1.266e+10
-1.25194e+10
-1.24244e+10
-1.23767e+10
-1.22929e+10
-1.22237e+10
-1.21971e+10
-1.22036e+10
-1.22443e+10
-1.23156e+10
-1.24156e+10
-1.25288e+10
-1.26174e+10
-1.26359e+10
-1.25272e+10
-1.22111e+10
-1.16156e+10
-1.07416e+10
-9.92592e+09
-1.02366e+10
-1.28857e+10
-1.57554e+10
-8.71676e+09
-1.77228e+10
-1.69971e+10
-1.59603e+10
-1.53938e+10
-1.66123e+10
-1.6367e+10
-1.57095e+10
-1.56896e+10
-1.60086e+10
-1.59539e+10
-1.57085e+10
-1.54318e+10
-1.51704e+10
-1.49862e+10
-1.49261e+10
-1.49106e+10
-1.48071e+10
-1.46639e+10
-1.45293e+10
-1.43923e+10
-1.4252e+10
-1.41067e+10
-1.39574e+10
-1.3805e+10
-1.36518e+10
-1.35003e+10
-1.3353e+10
-1.32118e+10
-1.30771e+10
-1.29478e+10
-1.28211e+10
-1.26948e+10
-1.25737e+10
-1.24676e+10
-1.23766e+10
-1.2305e+10
-1.22502e+10
-1.22167e+10
-1.22203e+10
-1.22573e+10
-1.23227e+10
-1.24141e+10
-1.25172e+10
-1.25948e+10
-1.25967e+10
-1.2469e+10
-1.21366e+10
-1.15263e+10
-1.0651e+10
-9.9222e+09
-1.05834e+10
-1.38192e+10
-1.63288e+10
-8.33653e+09
-1.64078e+10
-1.65704e+10
-1.64174e+10
-1.55916e+10
-1.6094e+10
-1.57572e+10
-1.55692e+10
-1.56475e+10
-1.5874e+10
-1.59183e+10
-1.569e+10
-1.5365e+10
-1.51372e+10
-1.49902e+10
-1.49377e+10
-1.48892e+10
-1.4787e+10
-1.46559e+10
-1.45233e+10
-1.43855e+10
-1.42425e+10
-1.40925e+10
-1.39366e+10
-1.37762e+10
-1.36148e+10
-1.34559e+10
-1.33024e+10
-1.31557e+10
-1.30154e+10
-1.28772e+10
-1.27374e+10
-1.25932e+10
-1.24532e+10
-1.23438e+10
-1.22635e+10
-1.21847e+10
-1.21218e+10
-1.20933e+10
-1.21021e+10
-1.21523e+10
-1.22432e+10
-1.23665e+10
-1.25011e+10
-1.26087e+10
-1.26385e+10
-1.2527e+10
-1.21941e+10
-1.15583e+10
-1.05991e+10
-9.61372e+09
-9.66983e+09
-1.22235e+10
-1.5512e+10
-9.21948e+09
-1.66111e+10
-1.62209e+10
-1.59556e+10
-1.59494e+10
-1.68116e+10
-1.61936e+10
-1.55682e+10
-1.54839e+10
-1.56463e+10
-1.57046e+10
-1.55828e+10
-1.53511e+10
-1.51428e+10
-1.50078e+10
-1.49565e+10
-1.49059e+10
-1.47984e+10
-1.46698e+10
-1.45413e+10
-1.44077e+10
-1.42678e+10
-1.41206e+10
-1.39667e+10
-1.38081e+10
-1.36479e+10
-1.349e+10
-1.33372e+10
-1.31904e+10
-1.30489e+10
-1.2912e+10
-1.27797e+10
-1.26495e+10
-1.252e+10
-1.24024e+10
-1.23022e+10
-1.22187e+10
-1.21561e+10
-1.21204e+10
-1.21198e+10
-1.21582e+10
-1.22364e+10
-1.23465e+10
-1.24679e+10
-1.25658e+10
-1.25907e+10
-1.24807e+10
-1.2162e+10
-1.15584e+10
-1.06644e+10
-9.84722e+09
-1.0317e+10
-1.33262e+10
-1.59586e+10
-8.38076e+09
-1.59223e+10
-1.6028e+10
-1.60429e+10
-1.59314e+10
-1.61444e+10
-1.58356e+10
-1.55203e+10
-1.54333e+10
-1.55367e+10
-1.56442e+10
-1.55786e+10
-1.53038e+10
-1.51024e+10
-1.50072e+10
-1.49597e+10
-1.48922e+10
-1.47905e+10
-1.46714e+10
-1.45465e+10
-1.44143e+10
-1.42736e+10
-1.41231e+10
-1.39628e+10
-1.37956e+10
-1.36269e+10
-1.34627e+10
-1.33053e+10
-1.31529e+10
-1.30058e+10
-1.2864e+10
-1.27261e+10
-1.25933e+10
-1.24705e+10
-1.236e+10
-1.22565e+10
-1.21673e+10
-1.21035e+10
-1.20716e+10
-1.20774e+10
-1.21266e+10
-1.22192e+10
-1.2346e+10
-1.24842e+10
-1.25976e+10
-1.26364e+10
-1.25369e+10
-1.22246e+10
-1.162e+10
-1.06851e+10
-9.66439e+09
-9.56961e+09
-1.20033e+10
-1.55782e+10
-9.52666e+09
-1.62872e+10
-1.6193e+10
-1.60826e+10
-1.59467e+10
-1.63546e+10
-1.59016e+10
-1.55179e+10
-1.54741e+10
-1.55256e+10
-1.55629e+10
-1.54719e+10
-1.52729e+10
-1.5105e+10
-1.50155e+10
-1.49648e+10
-1.48949e+10
-1.47922e+10
-1.46759e+10
-1.45544e+10
-1.44252e+10
-1.4287e+10
-1.41384e+10
-1.398e+10
-1.38151e+10
-1.36488e+10
-1.34861e+10
-1.333e+10
-1.31813e+10
-1.3039e+10
-1.29011e+10
-1.27684e+10
-1.26406e+10
-1.25159e+10
-1.2399e+10
-1.22937e+10
-1.22026e+10
-1.21339e+10
-1.20947e+10
-1.20903e+10
-1.21268e+10
-1.22063e+10
-1.23197e+10
-1.24461e+10
-1.25515e+10
-1.25888e+10
-1.24976e+10
-1.22073e+10
-1.16406e+10
-1.07738e+10
-9.90549e+09
-1.01347e+10
-1.28606e+10
-1.58446e+10
-8.71714e+09
-1.56193e+10
-1.58592e+10
-1.59192e+10
-1.60441e+10
-1.59361e+10
-1.56872e+10
-1.54419e+10
-1.53285e+10
-1.53869e+10
-1.54873e+10
-1.53931e+10
-1.5197e+10
-1.50747e+10
-1.50166e+10
-1.49634e+10
-1.48905e+10
-1.47956e+10
-1.46869e+10
-1.45701e+10
-1.44444e+10
-1.4307e+10
-1.41542e+10
-1.39853e+10
-1.38064e+10
-1.36262e+10
-1.34526e+10
-1.32883e+10
-1.31347e+10
-1.29908e+10
-1.28535e+10
-1.27224e+10
-1.26008e+10
-1.24914e+10
-1.23896e+10
-1.22908e+10
-1.22041e+10
-1.21396e+10
-1.21048e+10
-1.21066e+10
-1.21496e+10
-1.22335e+10
-1.23498e+10
-1.24789e+10
-1.25885e+10
-1.26331e+10
-1.25581e+10
-1.2304e+10
-1.18076e+10
-1.10444e+10
-1.02653e+10
-1.04537e+10
-1.29352e+10
-1.5773e+10
-8.59982e+09
-1.59531e+10
-1.60991e+10
-1.62588e+10
-1.59584e+10
-1.57288e+10
-1.54898e+10
-1.54428e+10
-1.54532e+10
-1.54782e+10
-1.54545e+10
-1.53329e+10
-1.51833e+10
-1.50794e+10
-1.50205e+10
-1.49654e+10
-1.48897e+10
-1.47941e+10
-1.46864e+10
-1.45707e+10
-1.44455e+10
-1.43082e+10
-1.41552e+10
-1.39872e+10
-1.38095e+10
-1.36302e+10
-1.34563e+10
-1.32931e+10
-1.31425e+10
-1.30029e+10
-1.28713e+10
-1.27453e+10
-1.26251e+10
-1.25139e+10
-1.241e+10
-1.23125e+10
-1.22276e+10
-1.21633e+10
-1.2127e+10
-1.21258e+10
-1.21647e+10
-1.22437e+10
-1.23543e+10
-1.24777e+10
-1.25821e+10
-1.26239e+10
-1.25497e+10
-1.23019e+10
-1.18185e+10
-1.10799e+10
-1.03505e+10
-1.06486e+10
-1.3285e+10
-1.6076e+10
-8.81926e+09
-1.54445e+10
-1.56702e+10
-1.58882e+10
-1.60555e+10
-1.5813e+10
-1.54046e+10
-1.51802e+10
-1.51487e+10
-1.52887e+10
-1.54125e+10
-1.53053e+10
-1.51608e+10
-1.50832e+10
-1.50359e+10
-1.49833e+10
-1.49125e+10
-1.48242e+10
-1.47228e+10
-1.46125e+10
-1.4493e+10
-1.43594e+10
-1.42029e+10
-1.40221e+10
-1.38252e+10
-1.36264e+10
-1.34372e+10
-1.32636e+10
-1.31074e+10
-1.29663e+10
-1.28335e+10
-1.27089e+10
-1.25964e+10
-1.24883e+10
-1.2383e+10
-1.22843e+10
-1.22e+10
-1.21367e+10
-1.21002e+10
-1.20978e+10
-1.21342e+10
-1.2209e+10
-1.23144e+10
-1.24312e+10
-1.25281e+10
-1.25628e+10
-1.24871e+10
-1.22514e+10
-1.18098e+10
-1.11636e+10
-1.05973e+10
-1.11147e+10
-1.38907e+10
-1.667e+10
-9.46839e+09
-1.56426e+10
-1.58342e+10
-1.62112e+10
-1.6144e+10
-1.5615e+10
-1.52079e+10
-1.52112e+10
-1.52486e+10
-1.53066e+10
-1.53373e+10
-1.52565e+10
-1.51546e+10
-1.50863e+10
-1.50386e+10
-1.4984e+10
-1.49128e+10
-1.48254e+10
-1.47255e+10
-1.46163e+10
-1.44976e+10
-1.43646e+10
-1.42091e+10
-1.4029e+10
-1.38323e+10
-1.36325e+10
-1.34413e+10
-1.32657e+10
-1.31073e+10
-1.29661e+10
-1.28373e+10
-1.2714e+10
-1.25976e+10
-1.24877e+10
-1.23831e+10
-1.22861e+10
-1.22038e+10
-1.21423e+10
-1.2107e+10
-1.21053e+10
-1.21421e+10
-1.22164e+10
-1.23201e+10
-1.24337e+10
-1.25254e+10
-1.25527e+10
-1.24673e+10
-1.22203e+10
-1.17643e+10
-1.10973e+10
-1.04897e+10
-1.09241e+10
-1.37319e+10
-1.70825e+10
-1.08461e+10
-1.53047e+10
-1.53699e+10
-1.56079e+10
-1.57867e+10
-1.5682e+10
-1.52655e+10
-1.5045e+10
-1.50925e+10
-1.52379e+10
-1.5273e+10
-1.51882e+10
-1.51088e+10
-1.50606e+10
-1.50211e+10
-1.4973e+10
-1.49078e+10
-1.48254e+10
-1.47299e+10
-1.46265e+10
-1.45167e+10
-1.43929e+10
-1.42392e+10
-1.40452e+10
-1.3821e+10
-1.35919e+10
-1.33786e+10
-1.31894e+10
-1.30242e+10
-1.28803e+10
-1.27497e+10
-1.26251e+10
-1.25098e+10
-1.24004e+10
-1.22943e+10
-1.21968e+10
-1.21139e+10
-1.20524e+10
-1.20201e+10
-1.20247e+10
-1.20704e+10
-1.21557e+10
-1.22711e+10
-1.23955e+10
-1.24948e+10
-1.25235e+10
-1.24301e+10
-1.21616e+10
-1.16705e+10
-1.09588e+10
-1.03071e+10
-1.07332e+10
-1.3715e+10
-1.77863e+10
-1.2684e+10
-1.53133e+10
-1.53891e+10
-1.57351e+10
-1.59158e+10
-1.55814e+10
-1.51962e+10
-1.51483e+10
-1.51682e+10
-1.51875e+10
-1.5195e+10
-1.51555e+10
-1.51079e+10
-1.5066e+10
-1.50276e+10
-1.49789e+10
-1.49146e+10
-1.48338e+10
-1.47399e+10
-1.46377e+10
-1.45288e+10
-1.44063e+10
-1.42543e+10
-1.40619e+10
-1.38391e+10
-1.36108e+10
-1.33974e+10
-1.32065e+10
-1.30385e+10
-1.2894e+10
-1.27669e+10
-1.26437e+10
-1.25268e+10
-1.24148e+10
-1.23077e+10
-1.22109e+10
-1.21284e+10
-1.20669e+10
-1.20341e+10
-1.20376e+10
-1.20818e+10
-1.21653e+10
-1.22784e+10
-1.23997e+10
-1.24952e+10
-1.25196e+10
-1.24207e+10
-1.21452e+10
-1.16421e+10
-1.09065e+10
-1.02016e+10
-1.053e+10
-1.34884e+10
-1.79209e+10
-1.362e+10
-1.50693e+10
-1.50079e+10
-1.50464e+10
-1.52444e+10
-1.54332e+10
-1.52569e+10
-1.50995e+10
-1.5137e+10
-1.51766e+10
-1.51295e+10
-1.50929e+10
-1.50657e+10
-1.50409e+10
-1.5014e+10
-1.49767e+10
-1.49231e+10
-1.48525e+10
-1.47692e+10
-1.46802e+10
-1.45905e+10
-1.44918e+10
-1.43548e+10
-1.41463e+10
-1.38751e+10
-1.3594e+10
-1.33451e+10
-1.31372e+10
-1.2964e+10
-1.28161e+10
-1.26859e+10
-1.25663e+10
-1.24521e+10
-1.2341e+10
-1.22341e+10
-1.21371e+10
-1.20561e+10
-1.19992e+10
-1.19761e+10
-1.19958e+10
-1.20632e+10
-1.21767e+10
-1.23253e+10
-1.24853e+10
-1.26188e+10
-1.26751e+10
-1.25953e+10
-1.23175e+10
-1.17816e+10
-1.09797e+10
-1.02013e+10
-1.04934e+10
-1.33254e+10
-1.70465e+10
-1.14551e+10
-1.4949e+10
-1.49013e+10
-1.50732e+10
-1.53812e+10
-1.54735e+10
-1.53672e+10
-1.51779e+10
-1.5116e+10
-1.51055e+10
-1.51008e+10
-1.50889e+10
-1.50695e+10
-1.50447e+10
-1.50171e+10
-1.4978e+10
-1.49237e+10
-1.48529e+10
-1.47691e+10
-1.46794e+10
-1.45892e+10
-1.44911e+10
-1.43564e+10
-1.41525e+10
-1.38872e+10
-1.36114e+10
-1.33654e+10
-1.3158e+10
-1.29841e+10
-1.28379e+10
-1.27109e+10
-1.25903e+10
-1.24739e+10
-1.23603e+10
-1.22506e+10
-1.21514e+10
-1.20682e+10
-1.20081e+10
-1.1981e+10
-1.19957e+10
-1.20577e+10
-1.21661e+10
-1.23103e+10
-1.24678e+10
-1.26017e+10
-1.26622e+10
-1.25915e+10
-1.2327e+10
-1.18062e+10
-1.10187e+10
-1.02583e+10
-1.05963e+10
-1.35035e+10
-1.70058e+10
-1.05303e+10
-1.47581e+10
-1.46416e+10
-1.45472e+10
-1.48449e+10
-1.5162e+10
-1.5198e+10
-1.5123e+10
-1.50694e+10
-1.50383e+10
-1.5026e+10
-1.50234e+10
-1.50202e+10
-1.50154e+10
-1.50063e+10
-1.49862e+10
-1.495e+10
-1.48961e+10
-1.48279e+10
-1.47539e+10
-1.46848e+10
-1.46189e+10
-1.4512e+10
-1.42838e+10
-1.39251e+10
-1.35444e+10
-1.3242e+10
-1.30173e+10
-1.28456e+10
-1.27057e+10
-1.25852e+10
-1.24738e+10
-1.23627e+10
-1.22491e+10
-1.21364e+10
-1.20314e+10
-1.19417e+10
-1.18766e+10
-1.18477e+10
-1.18654e+10
-1.19361e+10
-1.20592e+10
-1.2224e+10
-1.24065e+10
-1.25675e+10
-1.26543e+10
-1.26049e+10
-1.2353e+10
-1.18331e+10
-1.10439e+10
-1.03337e+10
-1.08141e+10
-1.3622e+10
-1.58945e+10
-7.71699e+09
-1.45729e+10
-1.45264e+10
-1.46497e+10
-1.49869e+10
-1.52923e+10
-1.52577e+10
-1.5066e+10
-1.50298e+10
-1.50269e+10
-1.5023e+10
-1.50224e+10
-1.50211e+10
-1.50154e+10
-1.50043e+10
-1.49823e+10
-1.49452e+10
-1.48917e+10
-1.48243e+10
-1.4751e+10
-1.46824e+10
-1.46178e+10
-1.45134e+10
-1.42881e+10
-1.39324e+10
-1.35538e+10
-1.32518e+10
-1.30252e+10
-1.28523e+10
-1.27136e+10
-1.25939e+10
-1.24813e+10
-1.2368e+10
-1.22524e+10
-1.21374e+10
-1.203e+10
-1.19375e+10
-1.18692e+10
-1.18362e+10
-1.18491e+10
-1.19142e+10
-1.20315e+10
-1.21911e+10
-1.23694e+10
-1.25281e+10
-1.26151e+10
-1.25691e+10
-1.23237e+10
-1.18109e+10
-1.10267e+10
-1.03217e+10
-1.0833e+10
-1.36896e+10
-1.60072e+10
-8.35462e+09
-1.4529e+10
-1.44672e+10
-1.45108e+10
-1.47837e+10
-1.49801e+10
-1.50562e+10
-1.50536e+10
-1.50259e+10
-1.5008e+10
-1.50058e+10
-1.50146e+10
-1.50296e+10
-1.50417e+10
-1.50444e+10
-1.5032e+10
-1.49999e+10
-1.49476e+10
-1.48783e+10
-1.48022e+10
-1.47394e+10
-1.47087e+10
-1.46696e+10
-1.44662e+10
-1.39935e+10
-1.34546e+10
-1.30939e+10
-1.28688e+10
-1.27139e+10
-1.25991e+10
-1.25015e+10
-1.24075e+10
-1.2308e+10
-1.22007e+10
-1.20893e+10
-1.19807e+10
-1.18839e+10
-1.18092e+10
-1.17684e+10
-1.17724e+10
-1.18278e+10
-1.19344e+10
-1.20809e+10
-1.22433e+10
-1.23827e+10
-1.24476e+10
-1.23774e+10
-1.21082e+10
-1.15803e+10
-1.08102e+10
-1.01682e+10
-1.07212e+10
-1.34202e+10
-1.57062e+10
-9.30097e+09
-1.44048e+10
-1.44892e+10
-1.46827e+10
-1.49144e+10
-1.50355e+10
-1.50075e+10
-1.49956e+10
-1.5001e+10
-1.50012e+10
-1.50036e+10
-1.5012e+10
-1.5026e+10
-1.50373e+10
-1.50391e+10
-1.50263e+10
-1.4995e+10
-1.49455e+10
-1.48802e+10
-1.48076e+10
-1.47465e+10
-1.47167e+10
-1.46812e+10
-1.44852e+10
-1.40149e+10
-1.34793e+10
-1.31173e+10
-1.28863e+10
-1.27274e+10
-1.26112e+10
-1.25121e+10
-1.2416e+10
-1.23148e+10
-1.22066e+10
-1.20949e+10
-1.19866e+10
-1.18905e+10
-1.1817e+10
-1.17777e+10
-1.17835e+10
-1.18411e+10
-1.19499e+10
-1.20993e+10
-1.22651e+10
-1.24083e+10
-1.24759e+10
-1.24069e+10
-1.21351e+10
-1.1596e+10
-1.07983e+10
-1.00968e+10
-1.0532e+10
-1.31702e+10
-1.57627e+10
-9.23078e+09
-1.44522e+10
-1.44602e+10
-1.46711e+10
-1.48231e+10
-1.48571e+10
-1.48763e+10
-1.4902e+10
-1.49183e+10
-1.49273e+10
-1.49389e+10
-1.49549e+10
-1.49754e+10
-1.49927e+10
-1.49978e+10
-1.4984e+10
-1.49491e+10
-1.49002e+10
-1.48458e+10
-1.47958e+10
-1.47731e+10
-1.48218e+10
-1.49452e+10
-1.48985e+10
-1.42559e+10
-1.33641e+10
-1.28607e+10
-1.26252e+10
-1.25124e+10
-1.24574e+10
-1.24096e+10
-1.23522e+10
-1.22797e+10
-1.21931e+10
-1.20974e+10
-1.20005e+10
-1.19125e+10
-1.18449e+10
-1.18093e+10
-1.18163e+10
-1.18718e+10
-1.1974e+10
-1.21103e+10
-1.22553e+10
-1.23708e+10
-1.24065e+10
-1.23046e+10
-1.2005e+10
-1.14542e+10
-1.06783e+10
-1.00581e+10
-1.06922e+10
-1.36005e+10
-1.58171e+10
-8.15282e+09
-1.44294e+10
-1.45892e+10
-1.4776e+10
-1.48701e+10
-1.48503e+10
-1.48469e+10
-1.48791e+10
-1.49038e+10
-1.49205e+10
-1.49344e+10
-1.49504e+10
-1.4969e+10
-1.49841e+10
-1.49863e+10
-1.49692e+10
-1.49312e+10
-1.48806e+10
-1.48275e+10
-1.47798e+10
-1.47571e+10
-1.48001e+10
-1.49211e+10
-1.48992e+10
-1.4276e+10
-1.33904e+10
-1.289e+10
-1.26474e+10
-1.25278e+10
-1.24682e+10
-1.24162e+10
-1.23548e+10
-1.22791e+10
-1.21903e+10
-1.20928e+10
-1.19949e+10
-1.19072e+10
-1.18409e+10
-1.18078e+10
-1.18183e+10
-1.18784e+10
-1.19862e+10
-1.21295e+10
-1.22827e+10
-1.24063e+10
-1.2448e+10
-1.23483e+10
-1.20441e+10
-1.14762e+10
-1.06653e+10
-9.9929e+09
-1.06105e+10
-1.36176e+10
-1.58973e+10
-8.37439e+09
-1.45055e+10
-1.45289e+10
-1.47166e+10
-1.47587e+10
-1.47544e+10
-1.47567e+10
-1.47768e+10
-1.4801e+10
-1.48282e+10
-1.48603e+10
-1.48986e+10
-1.49435e+10
-1.49881e+10
-1.50209e+10
-1.50338e+10
-1.50313e+10
-1.50344e+10
-1.50614e+10
-1.51113e+10
-1.51913e+10
-1.53444e+10
-1.56576e+10
-1.59382e+10
-1.52061e+10
-1.36874e+10
-1.23409e+10
-1.21874e+10
-1.2236e+10
-1.22899e+10
-1.23021e+10
-1.22761e+10
-1.22197e+10
-1.21417e+10
-1.20508e+10
-1.19571e+10
-1.18723e+10
-1.18087e+10
-1.1779e+10
-1.1794e+10
-1.18591e+10
-1.19721e+10
-1.21201e+10
-1.22777e+10
-1.24068e+10
-1.24579e+10
-1.23748e+10
-1.21002e+10
-1.15822e+10
-1.08429e+10
-1.0242e+10
-1.08174e+10
-1.35075e+10
-1.56345e+10
-7.97679e+09
-1.4504e+10
-1.4624e+10
-1.47339e+10
-1.47407e+10
-1.4718e+10
-1.47261e+10
-1.47504e+10
-1.47785e+10
-1.48092e+10
-1.48437e+10
-1.48829e+10
-1.49258e+10
-1.4966e+10
-1.4993e+10
-1.49992e+10
-1.49883e+10
-1.49841e+10
-1.50141e+10
-1.50744e+10
-1.5165e+10
-1.53112e+10
-1.55902e+10
-1.59736e+10
-1.53237e+10
-1.38153e+10
-1.23623e+10
-1.22146e+10
-1.22562e+10
-1.23055e+10
-1.23146e+10
-1.22875e+10
-1.22312e+10
-1.21538e+10
-1.20635e+10
-1.1971e+10
-1.1888e+10
-1.18266e+10
-1.1799e+10
-1.18157e+10
-1.18822e+10
-1.19958e+10
-1.21437e+10
-1.23003e+10
-1.24262e+10
-1.247e+10
-1.23733e+10
-1.20749e+10
-1.15162e+10
-1.07101e+10
-1.00148e+10
-1.05106e+10
-1.33628e+10
-1.62236e+10
-9.65952e+09
-1.46134e+10
-1.46484e+10
-1.47204e+10
-1.47176e+10
-1.47101e+10
-1.47132e+10
-1.47241e+10
-1.47417e+10
-1.4767e+10
-1.48022e+10
-1.48486e+10
-1.49054e+10
-1.49652e+10
-1.50126e+10
-1.50344e+10
-1.50396e+10
-1.50569e+10
-1.51102e+10
-1.51942e+10
-1.53027e+10
-1.54807e+10
-1.58714e+10
-1.63028e+10
-1.60967e+10
-1.51194e+10
-1.08938e+10
-1.14867e+10
-1.1928e+10
-1.21363e+10
-1.22103e+10
-1.22085e+10
-1.21586e+10
-1.20783e+10
-1.19814e+10
-1.18808e+10
-1.17893e+10
-1.17207e+10
-1.16884e+10
-1.17031e+10
-1.17708e+10
-1.1889e+10
-1.20447e+10
-1.22118e+10
-1.23504e+10
-1.24094e+10
-1.23309e+10
-1.20549e+10
-1.15241e+10
-1.07418e+10
-1.00095e+10
-1.03006e+10
-1.27876e+10
-1.54797e+10
-8.9383e+09
-1.46492e+10
-1.46992e+10
-1.4741e+10
-1.4728e+10
-1.47176e+10
-1.47219e+10
-1.47311e+10
-1.47462e+10
-1.47684e+10
-1.47996e+10
-1.48416e+10
-1.48934e+10
-1.49476e+10
-1.49906e+10
-1.50111e+10
-1.50132e+10
-1.50266e+10
-1.50838e+10
-1.51718e+10
-1.52882e+10
-1.54648e+10
-1.57977e+10
-1.62236e+10
-1.64099e+10
-1.56073e+10
-1.08242e+10
-1.14971e+10
-1.19467e+10
-1.21562e+10
-1.22317e+10
-1.22333e+10
-1.21873e+10
-1.21112e+10
-1.20188e+10
-1.19225e+10
-1.18348e+10
-1.17686e+10
-1.17372e+10
-1.17509e+10
-1.18152e+10
-1.19278e+10
-1.20759e+10
-1.22344e+10
-1.23637e+10
-1.24128e+10
-1.23235e+10
-1.20351e+10
-1.14895e+10
-1.06971e+10
-1.00284e+10
-1.06474e+10
-1.36528e+10
-1.58862e+10
-8.19443e+09
-1.47065e+10
-1.47258e+10
-1.47315e+10
-1.47244e+10
-1.47181e+10
-1.47144e+10
-1.47147e+10
-1.4724e+10
-1.47434e+10
-1.47743e+10
-1.4818e+10
-1.48742e+10
-1.49355e+10
-1.49849e+10
-1.50084e+10
-1.50127e+10
-1.50275e+10
-1.50883e+10
-1.51827e+10
-1.52937e+10
-1.54969e+10
-1.58952e+10
-1.6398e+10
-1.56695e+10
-9.40757e+09
-1.1399e+10
-1.18656e+10
-1.20932e+10
-1.21793e+10
-1.21833e+10
-1.2135e+10
-1.20544e+10
-1.19568e+10
-1.18558e+10
-1.17651e+10
-1.16986e+10
-1.16698e+10
-1.16895e+10
-1.17635e+10
-1.18894e+10
-1.20538e+10
-1.22284e+10
-1.23714e+10
-1.243e+10
-1.23448e+10
-1.20514e+10
-1.14877e+10
-1.06406e+10
-9.76005e+09
-9.77482e+09
-1.21012e+10
-1.53504e+10
-1.0292e+10
-1.47568e+10
-1.47384e+10
-1.4743e+10
-1.47313e+10
-1.47257e+10
-1.47237e+10
-1.47241e+10
-1.47314e+10
-1.47478e+10
-1.47762e+10
-1.48177e+10
-1.48714e+10
-1.49299e+10
-1.4979e+10
-1.50059e+10
-1.50148e+10
-1.50309e+10
-1.50818e+10
-1.51671e+10
-1.52741e+10
-1.54524e+10
-1.58591e+10
-1.64166e+10
-1.62565e+10
-9.35031e+09
-1.14385e+10
-1.19048e+10
-1.21315e+10
-1.22196e+10
-1.2228e+10
-1.21844e+10
-1.21082e+10
-1.20138e+10
-1.19142e+10
-1.18227e+10
-1.17526e+10
-1.17167e+10
-1.17255e+10
-1.17846e+10
-1.1892e+10
-1.2035e+10
-1.21871e+10
-1.23087e+10
-1.235e+10
-1.22544e+10
-1.19624e+10
-1.14169e+10
-1.06215e+10
-9.91476e+09
-1.03936e+10
-1.32108e+10
-1.57345e+10
-8.29156e+09
-1.47315e+10
-1.47174e+10
-1.47197e+10
-1.47168e+10
-1.47126e+10
-1.47069e+10
-1.47032e+10
-1.47063e+10
-1.47199e+10
-1.47466e+10
-1.47875e+10
-1.48413e+10
-1.4902e+10
-1.49568e+10
-1.49912e+10
-1.50026e+10
-1.50138e+10
-1.50518e+10
-1.51147e+10
-1.51946e+10
-1.53457e+10
-1.56825e+10
-1.6045e+10
-1.58891e+10
-1.32151e+10
-1.20153e+10
-1.19781e+10
-1.21023e+10
-1.22009e+10
-1.22352e+10
-1.22147e+10
-1.21534e+10
-1.20654e+10
-1.19633e+10
-1.18596e+10
-1.17674e+10
-1.17002e+10
-1.16711e+10
-1.16906e+10
-1.17651e+10
-1.18928e+10
-1.206e+10
-1.22383e+10
-1.23868e+10
-1.24568e+10
-1.23937e+10
-1.21382e+10
-1.16338e+10
-1.08739e+10
-1.01396e+10
-1.04215e+10
-1.29563e+10
-1.55274e+10
-8.18805e+09
-1.4752e+10
-1.47198e+10
-1.4716e+10
-1.47091e+10
-1.47028e+10
-1.46956e+10
-1.46907e+10
-1.46915e+10
-1.47012e+10
-1.47233e+10
-1.47594e+10
-1.48087e+10
-1.48655e+10
-1.49186e+10
-1.49566e+10
-1.49786e+10
-1.49982e+10
-1.50322e+10
-1.50809e+10
-1.51426e+10
-1.5285e+10
-1.56162e+10
-1.5885e+10
-1.56908e+10
-1.34988e+10
-1.20828e+10
-1.20276e+10
-1.21424e+10
-1.22384e+10
-1.22751e+10
-1.22601e+10
-1.22043e+10
-1.21209e+10
-1.20222e+10
-1.192e+10
-1.18271e+10
-1.17561e+10
-1.17196e+10
-1.17278e+10
-1.17865e+10
-1.18942e+10
-1.20371e+10
-1.21882e+10
-1.23085e+10
-1.23516e+10
-1.22663e+10
-1.19996e+10
-1.15023e+10
-1.07817e+10
-1.01602e+10
-1.06882e+10
-1.34689e+10
-1.59602e+10
-8.87917e+09
-1.4723e+10
-1.46999e+10
-1.46962e+10
-1.46894e+10
-1.46804e+10
-1.46699e+10
-1.46602e+10
-1.46539e+10
-1.46552e+10
-1.4667e+10
-1.46902e+10
-1.47231e+10
-1.47605e+10
-1.47942e+10
-1.48158e+10
-1.48221e+10
-1.48165e+10
-1.48038e+10
-1.47852e+10
-1.47743e+10
-1.48188e+10
-1.49379e+10
-1.48867e+10
-1.41853e+10
-1.32626e+10
-1.27363e+10
-1.25242e+10
-1.24353e+10
-1.23965e+10
-1.23531e+10
-1.22898e+10
-1.22039e+10
-1.21006e+10
-1.19879e+10
-1.18759e+10
-1.1776e+10
-1.17006e+10
-1.1662e+10
-1.16708e+10
-1.17339e+10
-1.18498e+10
-1.20053e+10
-1.21729e+10
-1.23144e+10
-1.23859e+10
-1.23405e+10
-1.2128e+10
-1.17032e+10
-1.1075e+10
-1.05391e+10
-1.10413e+10
-1.35985e+10
-1.59367e+10
-8.2283e+09
-1.4728e+10
-1.47064e+10
-1.46987e+10
-1.46892e+10
-1.46774e+10
-1.46642e+10
-1.46523e+10
-1.46441e+10
-1.46428e+10
-1.46512e+10
-1.46708e+10
-1.47008e+10
-1.47368e+10
-1.47714e+10
-1.4796e+10
-1.48067e+10
-1.48056e+10
-1.47963e+10
-1.47811e+10
-1.47742e+10
-1.48261e+10
-1.49497e+10
-1.48874e+10
-1.42119e+10
-1.32645e+10
-1.2732e+10
-1.2517e+10
-1.24288e+10
-1.23936e+10
-1.23554e+10
-1.22981e+10
-1.22177e+10
-1.21192e+10
-1.20106e+10
-1.19021e+10
-1.18048e+10
-1.17309e+10
-1.16925e+10
-1.17003e+10
-1.17605e+10
-1.18714e+10
-1.2019e+10
-1.2176e+10
-1.23042e+10
-1.23596e+10
-1.22958e+10
-1.20645e+10
-1.16212e+10
-1.09725e+10
-1.04077e+10
-1.08931e+10
-1.36171e+10
-1.65416e+10
-9.72034e+09
-1.47168e+10
-1.46992e+10
-1.46921e+10
-1.46826e+10
-1.46721e+10
-1.46597e+10
-1.46474e+10
-1.46375e+10
-1.46328e+10
-1.46362e+10
-1.46484e+10
-1.46678e+10
-1.46906e+10
-1.47118e+10
-1.47263e+10
-1.473e+10
-1.47201e+10
-1.46937e+10
-1.46515e+10
-1.46067e+10
-1.45798e+10
-1.45392e+10
-1.43385e+10
-1.38739e+10
-1.33561e+10
-1.30087e+10
-1.2798e+10
-1.26585e+10
-1.2558e+10
-1.24678e+10
-1.23727e+10
-1.22668e+10
-1.21508e+10
-1.20297e+10
-1.19115e+10
-1.18059e+10
-1.17243e+10
-1.16785e+10
-1.16792e+10
-1.1733e+10
-1.18385e+10
-1.19819e+10
-1.21354e+10
-1.22605e+10
-1.23143e+10
-1.22533e+10
-1.20331e+10
-1.16132e+10
-1.10062e+10
-1.05e+10
-1.10248e+10
-1.35953e+10
-1.59627e+10
-8.45328e+09
-1.47238e+10
-1.47055e+10
-1.46981e+10
-1.46874e+10
-1.46752e+10
-1.4661e+10
-1.46469e+10
-1.46355e+10
-1.46292e+10
-1.46305e+10
-1.46408e+10
-1.4659e+10
-1.46819e+10
-1.47048e+10
-1.47219e+10
-1.47282e+10
-1.47209e+10
-1.46986e+10
-1.46628e+10
-1.46271e+10
-1.46097e+10
-1.4573e+10
-1.4367e+10
-1.38856e+10
-1.33409e+10
-1.298e+10
-1.27668e+10
-1.2629e+10
-1.25297e+10
-1.24403e+10
-1.23462e+10
-1.22408e+10
-1.21254e+10
-1.20055e+10
-1.18894e+10
-1.17872e+10
-1.17104e+10
-1.16714e+10
-1.16808e+10
-1.1745e+10
-1.18617e+10
-1.20163e+10
-1.21799e+10
-1.23121e+10
-1.23672e+10
-1.22981e+10
-1.20561e+10
-1.15938e+10
-1.09067e+10
-1.02353e+10
-1.04761e+10
-1.30165e+10
-1.65336e+10
-1.08461e+10
-1.46987e+10
-1.46807e+10
-1.46727e+10
-1.46612e+10
-1.46479e+10
-1.46321e+10
-1.46156e+10
-1.46004e+10
-1.45892e+10
-1.45844e+10
-1.45872e+10
-1.45958e+10
-1.46068e+10
-1.46174e+10
-1.46245e+10
-1.46235e+10
-1.46101e+10
-1.45809e+10
-1.45366e+10
-1.44842e+10
-1.44245e+10
-1.43221e+10
-1.41086e+10
-1.37771e+10
-1.34296e+10
-1.31526e+10
-1.29481e+10
-1.27925e+10
-1.26648e+10
-1.2548e+10
-1.24304e+10
-1.23069e+10
-1.21778e+10
-1.20468e+10
-1.19205e+10
-1.18081e+10
-1.17205e+10
-1.16698e+10
-1.1667e+10
-1.17194e+10
-1.18252e+10
-1.19701e+10
-1.21251e+10
-1.22494e+10
-1.22982e+10
-1.22277e+10
-1.19937e+10
-1.15525e+10
-1.09101e+10
-1.03438e+10
-1.07788e+10
-1.33428e+10
-1.61241e+10
-9.26977e+09
-1.47059e+10
-1.4689e+10
-1.46819e+10
-1.46706e+10
-1.46571e+10
-1.46407e+10
-1.46238e+10
-1.46087e+10
-1.45974e+10
-1.45923e+10
-1.45946e+10
-1.4603e+10
-1.46148e+10
-1.46267e+10
-1.46348e+10
-1.46342e+10
-1.46211e+10
-1.45933e+10
-1.45524e+10
-1.45047e+10
-1.44489e+10
-1.43461e+10
-1.41251e+10
-1.3779e+10
-1.34124e+10
-1.31226e+10
-1.29111e+10
-1.27509e+10
-1.26178e+10
-1.24956e+10
-1.2373e+10
-1.22449e+10
-1.2112e+10
-1.19787e+10
-1.18521e+10
-1.17418e+10
-1.16594e+10
-1.16177e+10
-1.16281e+10
-1.16972e+10
-1.1823e+10
-1.19898e+10
-1.21673e+10
-1.2312e+10
-1.23743e+10
-1.23038e+10
-1.20473e+10
-1.15482e+10
-1.07872e+10
-9.98392e+09
-9.98971e+09
-1.23063e+10
-1.63259e+10
-1.19701e+10
-1.46812e+10
-1.46659e+10
-1.46582e+10
-1.46462e+10
-1.46322e+10
-1.46151e+10
-1.45967e+10
-1.45786e+10
-1.45634e+10
-1.45533e+10
-1.45496e+10
-1.45506e+10
-1.45532e+10
-1.45549e+10
-1.45539e+10
-1.45467e+10
-1.45286e+10
-1.44961e+10
-1.44493e+10
-1.43894e+10
-1.43089e+10
-1.41827e+10
-1.39837e+10
-1.37241e+10
-1.34564e+10
-1.32219e+10
-1.30284e+10
-1.28673e+10
-1.27258e+10
-1.25927e+10
-1.24591e+10
-1.23206e+10
-1.21778e+10
-1.20343e+10
-1.18966e+10
-1.17738e+10
-1.16772e+10
-1.16191e+10
-1.16115e+10
-1.16621e+10
-1.17694e+10
-1.19181e+10
-1.2078e+10
-1.22074e+10
-1.22607e+10
-1.21939e+10
-1.19614e+10
-1.15149e+10
-1.0856e+10
-1.0288e+10
-1.07845e+10
-1.34192e+10
-1.58637e+10
-8.34827e+09
-1.46875e+10
-1.46714e+10
-1.46654e+10
-1.46542e+10
-1.46407e+10
-1.46238e+10
-1.46055e+10
-1.45879e+10
-1.45732e+10
-1.45636e+10
-1.45602e+10
-1.45619e+10
-1.45661e+10
-1.45697e+10
-1.45698e+10
-1.45627e+10
-1.45445e+10
-1.45123e+10
-1.44665e+10
-1.4408e+10
-1.4328e+10
-1.41984e+10
-1.39907e+10
-1.37178e+10
-1.34372e+10
-1.31934e+10
-1.29953e+10
-1.28312e+10
-1.26861e+10
-1.25489e+10
-1.24112e+10
-1.22687e+10
-1.21225e+10
-1.19767e+10
-1.18383e+10
-1.17167e+10
-1.1624e+10
-1.1573e+10
-1.15756e+10
-1.16391e+10
-1.17618e+10
-1.19276e+10
-1.21048e+10
-1.22487e+10
-1.23092e+10
-1.22361e+10
-1.19755e+10
-1.14684e+10
-1.06998e+10
-9.96296e+09