/*--------------------------------*- C++ -*----------------------------------*\
| =========                 |                                                 |
| \\      /  F ield         | OpenFOAM: The Open Source CFD Toolbox           |
|  \\    /   O peration     | Version:  4.1                                   |
|   \\  /    A nd           | Web:      www.OpenFOAM.org                      |
|    \\/     M anipulation  |                                                 |
\*---------------------------------------------------------------------------*/
FoamFile
{
    version     2.0;
    format      ascii;
    class       volVectorField;
    location    "30";
    object      U;
}
// * * * * * * * * * * * * * * * * * * * * * * * * * * * * * * * * * * * * * //

dimensions      [0 1 -1 0 0 0 0];

internalField   nonuniform List<vector> 
4432
(
(-178736 -7556.61 -26379.6)
(-158762 3066.62 8452.52)
(-130768 7817.06 17054.3)
(-113853 -2857.75 1488.39)
(-125585 309.469 3215.53)
(-120389 862.684 6131.75)
(-112254 -200.258 1938.15)
(-110636 -350.82 799.485)
(-109261 -810.055 -355.422)
(-108290 -1232.8 -1085.34)
(-107240 -1543.93 -1477.33)
(-106454 -1653.1 -1711.82)
(-105751 -1681.67 -1792.35)
(-105175 -1733.81 -1742.01)
(-104674 -1790.34 -1628.16)
(-103903 -1820.97 -1646.23)
(-102937 -1824.5 -1807.43)
(-102042 -1830.15 -1933.66)
(-101166 -1862.51 -2069.1)
(-100189 -1892.74 -2175.22)
(-99093.8 -1929.67 -2299.35)
(-97890.5 -1970.58 -2420.12)
(-96571.8 -2014.73 -2541.02)
(-95141.6 -2061.41 -2654.3)
(-93615.5 -2110.08 -2756.48)
(-92015.8 -2159.69 -2843.84)
(-90372.8 -2208.64 -2914.17)
(-88712.5 -2254.85 -2967.59)
(-87062.6 -2295.93 -3006.16)
(-85440.5 -2329.38 -3034.1)
(-83866 -2352.77 -3056.94)
(-82361 -2364.26 -3078.19)
(-80947.2 -2362.54 -3106.18)
(-79639.1 -2347.64 -3145.74)
(-78423.7 -2323.37 -3180.45)
(-77285.4 -2291.89 -3194.93)
(-76214.8 -2254.27 -3201.51)
(-75185.4 -2211.65 -3211.58)
(-74179.4 -2163.55 -3225.12)
(-73180.5 -2109.66 -3234.92)
(-72187 -2048.37 -3218.19)
(-71195.1 -1978.8 -3146.41)
(-70192.8 -1896.31 -2990.81)
(-69187.9 -1791.29 -2718.54)
(-68230.4 -1645.64 -2298.72)
(-67362.1 -1435.07 -1751.42)
(-66523 -1132.88 -1086.84)
(-65164.5 -719.1 -180.365)
(-62107.8 -191.132 933.466)
(-57998.7 563.863 3105.59)
(-60942 1812.46 5276.34)
(-78220.9 3691.05 5676.86)
(-85987.8 7417.56 -4855.14)
(616.385 2642.51 -10011)
(-182116 -4462.22 -18470)
(-165180 5061.09 -2949.46)
(-155345 9466.24 902.158)
(-142783 679.239 1023.98)
(-142724 3478.38 -147.699)
(-141910 3977.35 1660.53)
(-135226 3180.87 -657.497)
(-132819 3095.73 -1239.92)
(-131344 2747.86 -1938.18)
(-129838 2417.36 -2177.63)
(-128183 2172.52 -2330.1)
(-126843 2080.05 -2457.42)
(-125798 2052.72 -2504.55)
(-124960 2001.53 -2431.61)
(-124170 1941 -2349.08)
(-123157 1898.72 -2432.06)
(-122024 1876.15 -2606.2)
(-121018 1848.55 -2719.55)
(-120050 1793.96 -2851.55)
(-119015 1736.62 -2960.44)
(-117920 1669.27 -3084.33)
(-116772 1593.97 -3203.9)
(-115564 1511.45 -3321.95)
(-114303 1422.47 -3432.39)
(-113003 1327.37 -3532.39)
(-111681 1227.22 -3619.8)
(-110361 1123.4 -3693.51)
(-109062 1017.67 -3754.9)
(-107801 911.645 -3806.85)
(-106585 807.306 -3854.37)
(-105420 706.14 -3901.05)
(-104310 608.827 -3948.69)
(-103255 515.853 -4000.25)
(-102253 427.081 -4057.39)
(-101287 339.637 -4116.26)
(-100342 252.516 -4171.91)
(-99397.1 167.434 -4220.46)
(-98433.3 86.4211 -4261.82)
(-97427.7 10.9372 -4295.04)
(-96358.4 -58.114 -4306.83)
(-95215.4 -120.759 -4272.53)
(-93987.4 -174.159 -4175.91)
(-92649.4 -212.023 -3996.09)
(-91184.8 -225.33 -3706.74)
(-89611.2 -198.842 -3285.99)
(-87945.9 -112.081 -2737.72)
(-86107.1 60.3391 -2095)
(-83609.4 340.637 -1318.67)
(-79606.7 734.532 -277.477)
(-74988.5 1200.52 1460.39)
(-76828.1 1789.87 2661.91)
(-90174.4 2969.34 2639.98)
(-92435.7 4883.09 -4881.21)
(33085.9 2006.18 -9152.9)
(-164020 -2376.04 -43063.4)
(-161173 -4249.19 -17971.7)
(-161810 -4084.69 -1900.96)
(-157209 -749.143 -10155.8)
(-153278 -1357.49 -5018.84)
(-156252 -1283.51 804.547)
(-153864 -1246.54 1156.68)
(-151391 -986.981 1508.19)
(-150702 -1034.91 1139.29)
(-149912 -974.601 838.185)
(-149154 -1012.56 633.778)
(-148773 -994.138 489.506)
(-148501 -966.26 496.028)
(-148424 -947.489 635.826)
(-148615 -970.836 802.352)
(-148787 -1021.77 914.879)
(-148735 -1026.6 935.631)
(-148673 -1004.17 943.781)
(-148657 -1006.8 913.914)
(-148631 -1005.51 897.569)
(-148602 -1006.3 870.635)
(-148564 -1005.31 857.191)
(-148523 -1002.37 860.324)
(-148481 -997.203 891.268)
(-148452 -990.366 955.167)
(-148445 -982.481 1056.39)
(-148477 -973.923 1196.03)
(-148560 -965.159 1371.74)
(-148704 -956.657 1579.19)
(-148913 -948.858 1810.5)
(-149195 -940.381 2056.79)
(-149558 -930.25 2313.97)
(-150006 -915.759 2580.77)
(-150526 -895.259 2846.12)
(-151119 -876.876 3106.14)
(-151819 -867.394 3361.42)
(-152643 -861.018 3601.65)
(-153615 -855.576 3837.09)
(-154754 -854.18 4072.7)
(-156081 -856.419 4324.53)
(-157624 -864.221 4608.37)
(-159408 -879.327 4937.18)
(-161441 -900.987 5321.21)
(-163734 -927.865 5767.78)
(-166332 -955.976 6278.12)
(-169322 -958.9 6840.84)
(-172693 -913.373 7409.76)
(-176229 -831.22 7877.71)
(-178733 -633.065 8151.1)
(-181467 -285.425 8271.63)
(-185493 628.516 6334.14)
(-210821 2980.04 -1891.16)
(-243944 7879.54 -23153.8)
(-224308 5437.14 -15936.8)
(-179362 1045.26 -30903.9)
(-176599 -485.762 -16862.4)
(-174070 -364.552 -9850.33)
(-171415 2935.04 -5656.58)
(-170904 2276.72 -5395.97)
(-173184 2352.76 -1229.09)
(-171227 2421.19 -379.258)
(-169367 2664.57 185.102)
(-169112 2612.95 82.2892)
(-168557 2684.14 244.55)
(-168100 2663.53 348.97)
(-167827 2691.89 401.928)
(-167685 2731.95 484.59)
(-167748 2762.94 658.993)
(-168050 2754.51 854.55)
(-168250 2717.87 943.39)
(-168191 2718.44 965.233)
(-168164 2738.58 975.477)
(-168171 2730.93 956.725)
(-168117 2720.54 938.403)
(-168034 2701.87 905.356)
(-167908 2677.36 876.187)
(-167747 2646.41 854.268)
(-167553 2608.62 847.684)
(-167336 2563.12 861.53)
(-167106 2509.1 898.49)
(-166882 2445.97 959.4)
(-166674 2373.19 1041.83)
(-166496 2290.24 1141.89)
(-166360 2196.9 1252.93)
(-166279 2094.5 1367.69)
(-166257 1983.95 1482.1)
(-166299 1867.98 1596.29)
(-166414 1748.85 1707.54)
(-166609 1619.58 1813.25)
(-166900 1474.78 1906.4)
(-167308 1320.26 1980.65)
(-167861 1157.46 2035.36)
(-168578 984.75 2073.62)
(-169474 804.37 2106.79)
(-170569 615.622 2153.19)
(-171898 419.329 2235.19)
(-173484 219.869 2372.09)
(-175355 22.4838 2578.64)
(-177560 -163.797 2863.74)
(-180174 -308.334 3216.84)
(-183155 -387.59 3590.81)
(-186209 -408.633 3902.2)
(-187984 -370.904 4104.47)
(-188555 -318.349 4285.09)
(-189319 812.711 3669.04)
(-204331 3435.47 -2230.5)
(-185288 8779.83 -15643.8)
(-175630 15755.2 -3173.54)
(-148782 829.821 -27393.1)
(-137243 -222.378 -24102.3)
(-137196 -3762.17 -21728.6)
(-135754 1117.3 -13529.3)
(-130075 -1142.73 -13739)
(-131009 -2194.7 -10547.8)
(-130477 -2508.22 -7086.16)
(-130100 -2263.26 -5515.59)
(-129388 -2316.82 -4577.97)
(-128127 -2170.53 -3769.47)
(-126807 -2108.21 -3357.22)
(-125648 -2025.5 -3187.77)
(-124514 -2020.13 -3136.57)
(-123695 -2067.28 -3167.99)
(-123208 -2115.92 -3260.99)
(-122677 -2210.57 -3299.88)
(-121951 -2253.34 -3326.13)
(-121233 -2288.17 -3430.29)
(-120516 -2329.12 -3589.74)
(-119725 -2371.23 -3792.05)
(-118879 -2412.81 -4017.28)
(-117969 -2451.97 -4250.76)
(-116998 -2485.73 -4474.08)
(-115969 -2514.58 -4673.6)
(-114899 -2537.31 -4837.45)
(-113807 -2555.05 -4959.78)
(-112719 -2567.76 -5037.96)
(-111652 -2576.1 -5074.54)
(-110623 -2580.68 -5072.19)
(-109640 -2582.58 -5034.93)
(-108698 -2582.96 -4964.11)
(-107784 -2584.32 -4843.06)
(-106909 -2588.05 -4642.82)
(-106079 -2587.88 -4440.8)
(-105274 -2583.52 -4309.53)
(-104500 -2584.53 -4115.58)
(-103738 -2583.03 -3891.97)
(-102954 -2585.23 -3665.67)
(-102124 -2586.09 -3429.32)
(-101203 -2582.03 -3190.05)
(-100161 -2565.75 -2950.33)
(-98975.8 -2528.16 -2726.76)
(-97609.3 -2453.61 -2537.97)
(-96030.4 -2321.66 -2399.61)
(-94303.6 -2110.3 -2337.36)
(-92530.3 -1804.28 -2370.53)
(-90668.6 -1389.67 -2594.1)
(-88136.7 -805.696 -3343.78)
(-83724 48.4267 -4727.16)
(-78931.7 1167.25 -6950.84)
(-82830 3727.09 -9800.51)
(-106545 5038.84 -13088.5)
(-115924 15153.4 -17646.4)
(-41931.3 7374.36 -4977.12)
(-160156 4137.56 -24053.5)
(-156759 3023.78 -16023.8)
(-151096 -12.5194 -12944.7)
(-149765 4659.05 -9254.07)
(-150293 2695.9 -10130.7)
(-149677 1928.43 -8024.99)
(-148850 1726.69 -4660.88)
(-148691 2017.11 -3298.49)
(-148524 2031.82 -2310.38)
(-147681 2221.26 -1491.28)
(-146971 2335.84 -999.146)
(-146400 2466.65 -750.005)
(-145899 2527.8 -658.897)
(-145571 2542.27 -676.607)
(-145492 2554.21 -725.948)
(-145294 2525.16 -694.701)
(-144856 2537.74 -677.195)
(-144459 2553.52 -763.62)
(-144059 2559.95 -872.641)
(-143587 2560.94 -1022.36)
(-143060 2557.39 -1189.62)
(-142468 2550.29 -1364.62)
(-141811 2541.46 -1531.67)
(-141094 2529.87 -1678.12)
(-140328 2515.92 -1794.06)
(-139530 2498.34 -1874.6)
(-138718 2476.83 -1918.57)
(-137908 2450.7 -1929.64)
(-137113 2419.25 -1912.46)
(-136334 2381.52 -1873.3)
(-135567 2336.63 -1818.09)
(-134811 2282.58 -1746.19)
(-134081 2217.64 -1652.4)
(-133382 2145.7 -1542.13)
(-132716 2065.68 -1417.24)
(-132089 1970.26 -1282.59)
(-131491 1868.21 -1133.14)
(-130910 1753.17 -956.629)
(-130321 1627.61 -757.706)
(-129692 1494.02 -529.285)
(-128992 1357.79 -267.617)
(-128187 1224.81 22.7076)
(-127227 1103.99 330.464)
(-126048 1006.16 643.87)
(-124638 944.198 951.349)
(-123029 933.576 1237.94)
(-121200 981.548 1472.77)
(-118723 1102.66 1567.41)
(-114774 1335.3 1544.2)
(-110019 1695.1 1275.83)
(-112862 2599.39 691.671)
(-114279 983.64 -2344.49)
(-130949 -1267.08 -9173.89)
(9284.98 5977.99 -2503.48)
(-144642 -3147.74 -21243.6)
(-144266 -542.02 -11174.2)
(-139668 4.14278 -12533.3)
(-138334 -441.368 -6633.81)
(-137744 -1992.35 -7790.55)
(-136592 -3045.22 -6929.4)
(-135834 -2787.21 -6018.21)
(-135153 -2495.29 -4915.11)
(-134666 -2388.92 -3925.27)
(-133906 -2224.74 -3052.37)
(-133317 -2181.62 -2381.23)
(-132849 -2139.22 -1754.37)
(-132363 -2154.56 -1421.48)
(-132051 -2224.1 -1311.5)
(-131922 -2316.9 -1313.66)
(-131713 -2399.81 -1286.3)
(-131376 -2451.54 -1292.07)
(-131076 -2512.98 -1369.04)
(-130790 -2580.63 -1462.68)
(-130460 -2654.87 -1587.91)
(-130089 -2735.49 -1722.52)
(-129672 -2820.75 -1852.7)
(-129217 -2909.32 -1952.71)
(-128737 -2998 -2006.65)
(-128252 -3085.58 -1998.73)
(-127792 -3170.59 -1927.27)
(-127383 -3252.43 -1795.26)
(-127049 -3331.2 -1613.06)
(-126804 -3408.35 -1390.43)
(-126654 -3485.93 -1129.87)
(-126587 -3567.24 -831.186)
(-126586 -3665.94 -492.376)
(-126745 -3797.64 -113.677)
(-127130 -3897.56 277.508)
(-127533 -3916.13 659.297)
(-127936 -3987.69 1055.47)
(-128486 -4074.43 1478.24)
(-129138 -4141.13 1908.67)
(-129862 -4208.03 2342.17)
(-130647 -4267.74 2759.06)
(-131488 -4318.82 3140.91)
(-132391 -4358.34 3484.04)
(-133339 -4382.36 3806.73)
(-134339 -4389.39 4125.84)
(-135451 -4366.01 4457.35)
(-136786 -4299.65 4813.35)
(-138493 -4188.19 5185.15)
(-140519 -4010.38 5455.26)
(-142202 -3721.37 5406.39)
(-144450 -3168.43 4778.04)
(-153371 -1827.02 2370.43)
(-185328 985.249 -3110.99)
(-231833 10824.9 -21758.3)
(-202621 17943.4 -22259.9)
(-151521 891.609 -20423.2)
(-153799 3251.85 -9526.93)
(-152162 3664.72 -7245.42)
(-153688 3242.66 -6287.53)
(-154250 1813.63 -6242.9)
(-151915 888.187 -4985.88)
(-150278 1155.92 -3820.31)
(-149903 1448.54 -2891.27)
(-149565 1560.79 -1723.84)
(-148875 1725.86 -882.468)
(-148408 1793.83 -319.714)
(-147996 1868.9 76.8456)
(-147602 1893.5 275.107)
(-147322 1868.29 297.535)
(-147139 1820.97 225.913)
(-146826 1781.09 217.224)
(-146402 1767.99 141.444)
(-146036 1745.63 -12.2752)
(-145678 1717.54 -178.226)
(-145279 1683.33 -372.839)
(-144844 1643.37 -576.353)
(-144376 1599.01 -775.279)
(-143892 1550.88 -948.737)
(-143406 1501.16 -1078.76)
(-142939 1450.14 -1153.49)
(-142520 1398.3 -1169.13)
(-142172 1345.68 -1130.32)
(-141915 1291.61 -1045.98)
(-141761 1234.61 -924.97)
(-141718 1173.11 -775.157)
(-141781 1104.42 -605.862)
(-141949 1016.74 -421.458)
(-142233 896.858 -216.17)
(-142634 803.464 6.70709)
(-143146 780.662 242.852)
(-143762 708.459 499.78)
(-144461 623.007 781.155)
(-145249 555.954 1090.34)
(-146111 487.803 1425.57)
(-147006 422.146 1777.73)
(-147937 357.294 2133.13)
(-148907 293.314 2493.35)
(-149921 225.956 2860.57)
(-150969 146.335 3231.87)
(-152101 60.0915 3603.95)
(-153380 -25.7199 3972.03)
(-154796 -108.717 4299.47)
(-155975 -194.838 4462.63)
(-155902 -276.887 4240.76)
(-154482 -365.282 3322.11)
(-153420 -345.964 166.569)
(-162495 -3292.66 -5380.33)
(-129780 6917.91 -21906.4)
(-55383.7 4096.1 -10025.1)
(-137523 -2380.7 -27261.2)
(-140486 -2415.83 -17724.8)
(-138750 -1839 -14111)
(-138344 -2170.87 -12204.2)
(-137630 -3028.54 -10262.4)
(-136102 -3411.52 -8666.89)
(-135446 -3275.03 -7118.58)
(-134955 -2983.24 -5968.69)
(-134505 -2572.32 -4918.96)
(-133653 -2194.24 -4254.82)
(-132701 -2025.27 -3876.44)
(-132040 -1993.87 -3371.23)
(-131608 -1977.43 -3010.61)
(-131308 -1995.3 -2835.17)
(-131092 -2018.3 -2751.31)
(-130773 -2051.45 -2674.38)
(-130388 -2082.62 -2692.42)
(-130014 -2126.3 -2801.74)
(-129624 -2179.23 -2949.36)
(-129187 -2241.62 -3133.49)
(-128697 -2312.31 -3336.9)
(-128149 -2389.22 -3537.49)
(-127552 -2472.74 -3707.15)
(-126931 -2559.71 -3813.93)
(-126320 -2652.03 -3840.41)
(-125766 -2748.27 -3783.57)
(-125306 -2849.26 -3650.85)
(-124966 -2952.83 -3450.73)
(-124755 -3057.29 -3199.27)
(-124671 -3167.7 -2913.63)
(-124706 -3293.08 -2608.79)
(-124853 -3440.21 -2311.91)
(-125153 -3601.3 -2052.14)
(-125632 -3745.12 -1763.85)
(-126222 -3854.02 -1383.78)
(-126887 -3954.06 -1043.43)
(-127661 -4045.71 -721.874)
(-128524 -4114.35 -400.249)
(-129479 -4157.7 -83.6395)
(-130548 -4171.27 226.568)
(-131722 -4156.65 513.239)
(-133015 -4118.52 785.725)
(-134422 -4052.85 1047.08)
(-135983 -3968.85 1298.43)
(-137754 -3877.7 1536.03)
(-139820 -3789.76 1787.95)
(-142341 -3717.81 2074.88)
(-145273 -3671.06 2373.83)
(-148322 -3618.57 2622.37)
(-153317 -3736.91 2600.38)
(-167044 -3350.95 503.062)
(-206239 -2504.77 -1730.15)
(-285865 5740.24 -570.303)
(-255740 13959.9 -1286.84)
(-138444 1371.83 -24530.8)
(-140662 1536.97 -17705.9)
(-140414 2117.3 -14682.9)
(-141993 1809.21 -12096)
(-142029 947.436 -8973.53)
(-140104 555.905 -6402.9)
(-139298 669.719 -5130.06)
(-138876 924.89 -4391.97)
(-138569 1293.22 -3488.99)
(-138119 1624.2 -2946.53)
(-137634 1757.62 -2531.5)
(-137205 1770 -2134.69)
(-136866 1776.71 -1852.69)
(-136621 1754.35 -1714.45)
(-136408 1733.2 -1639.51)
(-136068 1708.04 -1582.44)
(-135652 1690.56 -1648.14)
(-135255 1666.19 -1799.27)
(-134841 1638.39 -1984.78)
(-134376 1607.17 -2203.61)
(-133852 1573.88 -2437.32)
(-133258 1540.9 -2667.02)
(-132597 1507.93 -2861.51)
(-131885 1478.51 -2993.2)
(-131154 1450.97 -3043.5)
(-130438 1426.5 -3007.87)
(-129772 1403.64 -2892.49)
(-129178 1383.27 -2709.36)
(-128670 1365.5 -2472.12)
(-128259 1344.1 -2191.63)
(-127942 1309.07 -1881.17)
(-127696 1252.86 -1553.81)
(-127525 1181.92 -1209.21)
(-127440 1124.18 -840.324)
(-127429 1094.65 -447.244)
(-127480 1069.45 -22.5895)
(-127573 1049.33 425.646)
(-127684 1048.47 888.112)
(-127786 1069.42 1378.43)
(-127847 1117.15 1884.01)
(-127826 1185.03 2381.96)
(-127700 1265.25 2880.79)
(-127410 1362.68 3386.79)
(-126907 1457.9 3883.65)
(-126159 1527.38 4342.51)
(-125170 1561.56 4741.58)
(-123876 1545.46 5046.31)
(-121844 1484.41 5234.96)
(-118384 1369.74 5258.3)
(-114121 1054.13 4475.7)
(-116029 1021.9 1734.93)
(-129206 -1894.89 -2262.25)
(-134603 4002.78 -10600.1)
(-53994.4 2121.53 -1438.82)
(-135967 -863.148 -20944)
(-139093 -1809.19 -16540.3)
(-138782 -2039.46 -13505.2)
(-139526 -2116.86 -11698.4)
(-139301 -2575.87 -9361.45)
(-138270 -2708.44 -7992.89)
(-137599 -2793.89 -6669.88)
(-137089 -2944.84 -5475.36)
(-136756 -2964.57 -4288.71)
(-136332 -2864.77 -3375.37)
(-135582 -2714.22 -2697.62)
(-134833 -2693.15 -2208.18)
(-134375 -2694.01 -1855.2)
(-134034 -2708.37 -1664.03)
(-133691 -2719.86 -1514.94)
(-133266 -2731.02 -1431.95)
(-132779 -2740.63 -1458.65)
(-132245 -2757.7 -1580.22)
(-131633 -2780.17 -1766.58)
(-130910 -2809.54 -2010.3)
(-130048 -2843.46 -2292.78)
(-129019 -2882.17 -2582.03)
(-127812 -2922.22 -2833.66)
(-126447 -2964.96 -2995.94)
(-124973 -3008.42 -3046.05)
(-123448 -3050.63 -2976.57)
(-121921 -3090.75 -2802.59)
(-120432 -3133.52 -2547.17)
(-119013 -3179.73 -2238.89)
(-117679 -3226.03 -1904.11)
(-116434 -3273.77 -1564.88)
(-115275 -3322.55 -1249.68)
(-114206 -3358.7 -984.897)
(-113213 -3373.56 -743.497)
(-112294 -3377.12 -488.164)
(-111480 -3367.09 -236.713)
(-110778 -3332.37 15.1841)
(-110178 -3269.83 260.958)
(-109660 -3172.05 505.47)
(-109214 -3026.4 753.281)
(-108846 -2825.49 1007.03)
(-108551 -2560.94 1264.66)
(-108321 -2232.01 1531.49)
(-108139 -1850.16 1803.91)
(-107983 -1430.91 2043.33)
(-107890 -1005.81 2243.18)
(-107919 -631.721 2419.06)
(-107780 -324.292 2674.72)
(-106915 -17.51 3487.04)
(-107389 345.015 4844.88)
(-117244 2085.21 9554.75)
(-178189 1831.32 17667.2)
(-273069 1612.63 30517.9)
(-150125 -2492.09 3007.57)
(-136101 1589.72 -20648.2)
(-137538 1083.06 -16672)
(-137290 1046.94 -14573.7)
(-138205 1174.86 -12126.3)
(-138268 880.173 -8584.87)
(-137045 877.475 -6492.14)
(-136666 897.766 -5268.4)
(-136354 824.579 -4463.16)
(-136023 860.877 -3752.37)
(-135662 998.316 -3143.74)
(-135214 1178.34 -2604.02)
(-134842 1221.39 -2211.64)
(-134648 1238.94 -1963.6)
(-134547 1238.44 -1857.88)
(-134431 1239.13 -1800.22)
(-134238 1238.55 -1805.81)
(-134000 1238.85 -1933.03)
(-133738 1231.51 -2152.07)
(-133423 1219 -2432.48)
(-133027 1199.7 -2764.71)
(-132528 1176.14 -3127.48)
(-131906 1147.7 -3492.07)
(-131154 1117.21 -3812.51)
(-130296 1082.59 -4044.91)
(-129373 1045.17 -4160.34)
(-128436 1006.21 -4155.8)
(-127526 965.928 -4046.9)
(-126673 919.076 -3861.28)
(-125886 864.067 -3629.47)
(-125166 803.027 -3373.43)
(-124506 733.899 -3101.37)
(-123887 657.068 -2825.83)
(-123297 584.446 -2570.74)
(-122734 521.438 -2331.44)
(-122185 456.182 -2092.46)
(-121645 389.919 -1845.03)
(-121110 332.197 -1577.22)
(-120568 289.47 -1283.75)
(-120013 266.39 -958.161)
(-119448 269.782 -595.761)
(-118873 295.617 -196.653)
(-118276 341.469 228.02)
(-117634 405.548 667.743)
(-116939 472.703 1102.85)
(-116210 517.27 1499.7)
(-115541 498.423 1822.64)
(-115086 361.602 2065.53)
(-114808 116.128 2349.84)
(-114098 -249.771 2906.55)
(-113798 -784.114 3877.25)
(-121190 184.028 6340.86)
(-153316 662.918 11027.1)
(-215097 2629.98 26320.5)
(-156701 -2207.66 10703.5)
(-131033 177.638 -18467.3)
(-134842 -618.977 -14570.5)
(-135899 -1238.21 -12735)
(-137465 -1146.56 -11120.5)
(-138218 -1048.53 -9049.2)
(-138626 -896.468 -7393.45)
(-138889 -1039.95 -5961.12)
(-139163 -1279.68 -4778.02)
(-139508 -1438.84 -3867.56)
(-139586 -1413.09 -3155.19)
(-139409 -1389.76 -2423.66)
(-139364 -1426.76 -1970.56)
(-139464 -1462.43 -1680.74)
(-139557 -1495.43 -1500.85)
(-139604 -1526.35 -1390.32)
(-139593 -1551.35 -1373.74)
(-139524 -1574.41 -1465.33)
(-139399 -1599.61 -1651.86)
(-139205 -1627.09 -1912.21)
(-138919 -1658.11 -2240.38)
(-138512 -1691.49 -2615.7)
(-137946 -1728.45 -3005.14)
(-137206 -1767.3 -3340.52)
(-136319 -1810.37 -3558.15)
(-135344 -1850.88 -3612.4)
(-134337 -1888.8 -3503.99)
(-133347 -1923.96 -3261.6)
(-132396 -1958.5 -2934.29)
(-131486 -1993.72 -2566.41)
(-130601 -2033.36 -2184.66)
(-129731 -2078.26 -1811.39)
(-128868 -2123.53 -1466.94)
(-127996 -2164.29 -1143.19)
(-127073 -2198.99 -831.324)
(-126072 -2232.61 -535.894)
(-124990 -2267.11 -252.014)
(-123827 -2300.16 40.7)
(-122567 -2326.78 338.676)
(-121228 -2341.66 661.527)
(-119808 -2341.12 1018.03)
(-118315 -2318.56 1418.21)
(-116756 -2268.15 1861.5)
(-115140 -2186.16 2335.56)
(-113472 -2069.51 2823.17)
(-111763 -1921.86 3305.69)
(-110066 -1748.79 3793.33)
(-108470 -1541.55 4346.22)
(-106772 -1252.24 5104.42)
(-104374 -932.096 6437.73)
(-100292 -565.241 8295.12)
(-101831 475.555 13504.2)
(-117648 2485.4 25098.9)
(-151204 8005.13 54626.2)
(-100071 2757.79 9293.78)
(-130378 1286.29 -19562.7)
(-133274 579.097 -15736.3)
(-133947 78.135 -14371.3)
(-134572 282.171 -13078.2)
(-135185 511.116 -10514.1)
(-135666 783.067 -8655.52)
(-136166 759.164 -7345.57)
(-136331 628.686 -6205.51)
(-136302 564.674 -5336.19)
(-136081 676.082 -4669.74)
(-135839 778.285 -4115.74)
(-135720 812.163 -3761.15)
(-135687 840.362 -3552.69)
(-135656 865.172 -3443.47)
(-135584 887.302 -3404.25)
(-135464 911.031 -3458.46)
(-135311 933.043 -3623.84)
(-135131 949.967 -3879.9)
(-134913 962.348 -4208.97)
(-134642 969.217 -4602.4)
(-134294 972.239 -5043.04)
(-133841 970.301 -5493.99)
(-133273 964.854 -5891.14)
(-132622 952.48 -6162.16)
(-131946 938.64 -6261.53)
(-131312 921.625 -6188.13)
(-130770 900.094 -5971.87)
(-130345 870.393 -5657.57)
(-130040 829.983 -5294.58)
(-129839 774.403 -4922.38)
(-129726 702.945 -4557.26)
(-129688 620.598 -4213.91)
(-129703 532.02 -3905.05)
(-129742 438.919 -3629.98)
(-129784 336.277 -3387.52)
(-129813 222.077 -3178.54)
(-129812 99.1472 -2990.31)
(-129760 -27.5204 -2809.34)
(-129633 -152.939 -2629.81)
(-129398 -273.602 -2447.68)
(-129022 -386.481 -2260.28)
(-128471 -486.392 -2070.79)
(-127708 -568.403 -1877.56)
(-126688 -635.359 -1692.1)
(-125390 -696.289 -1529)
(-123847 -756.839 -1401.92)
(-122086 -808.53 -1308.86)
(-119748 -826.169 -1238.48)
(-115902 -870.104 -1011.08)
(-109883 -848.31 -406.65)
(-107435 -16.8317 2929.21)
(-108001 1397.56 11362.1)
(-107776 4163.39 39473.6)
(-39878.7 1414.75 15091.2)
(-124587 340.094 -17878)
(-127272 91.6913 -13816.9)
(-128549 -417.587 -12279.9)
(-129698 -555.988 -10488.5)
(-129885 -332.091 -8939.99)
(-130039 -119.42 -7223.63)
(-130421 -229.078 -5711.28)
(-130993 -352.198 -4586.04)
(-131660 -350.835 -3759.02)
(-131862 -238.514 -2996.02)
(-131760 -214.812 -2408.57)
(-131824 -242.456 -2044.74)
(-131986 -271.32 -1785.38)
(-132142 -302.585 -1615.49)
(-132271 -330.722 -1544.05)
(-132355 -358.432 -1577.5)
(-132387 -387.605 -1720.52)
(-132358 -419.72 -1964.16)
(-132257 -456.315 -2296.08)
(-132060 -496.391 -2714.15)
(-131723 -542.051 -3212.63)
(-131178 -592.312 -3768.27)
(-130387 -650.911 -4298.14)
(-129385 -712.795 -4691.7)
(-128276 -776.329 -4862.52)
(-127178 -835.647 -4814.82)
(-126172 -888.206 -4594.2)
(-125301 -931.368 -4266.41)
(-124563 -968.267 -3895.04)
(-123943 -1005.58 -3522.35)
(-123429 -1037.29 -3165.7)
(-122990 -1057.26 -2840.4)
(-122593 -1074.5 -2539.28)
(-122227 -1090.53 -2253.17)
(-121878 -1105.82 -1984.98)
(-121534 -1121.64 -1728.4)
(-121171 -1138.87 -1473.64)
(-120765 -1157.6 -1215.46)
(-120303 -1174.65 -939.586)
(-119773 -1187.54 -637.159)
(-119168 -1191.58 -302.598)
(-118486 -1183.63 62.167)
(-117725 -1160.67 454.072)
(-116900 -1117.77 873.699)
(-116044 -1051.7 1325.72)
(-115226 -950.943 1845.86)
(-114505 -804.318 2529.14)
(-113551 -609.374 3459.25)
(-111262 -400.012 4794.56)
(-106584 -44.8527 7374.9)
(-104835 851.64 12253.3)
(-109798 2909.23 22407.6)
(-123677 11882.6 54080.5)
(-62427.3 6857.34 20561)
(-120868 1873.45 -17743.7)
(-123532 1465.81 -13389.3)
(-124679 934.437 -11724.7)
(-124881 769.388 -10580.1)
(-124490 999.356 -9243.85)
(-124706 1225.7 -7871.42)
(-125156 1130.14 -6628.4)
(-125364 1025.11 -5524.28)
(-125558 1053.71 -4581.75)
(-125503 1203.53 -3870.71)
(-125309 1265.71 -3389.32)
(-125210 1273.95 -3094.41)
(-125175 1280.15 -2905.69)
(-125146 1283.3 -2809.12)
(-125099 1288.85 -2808.37)
(-125027 1293.72 -2919.14)
(-124920 1295.64 -3144.61)
(-124769 1292.95 -3473.86)
(-124563 1284.07 -3896.93)
(-124283 1270.01 -4411.86)
(-123885 1248.52 -5016.4)
(-123301 1220.29 -5683.16)
(-122495 1180.82 -6327.16)
(-121509 1134.36 -6822.24)
(-120457 1081.52 -7082.19)
(-119462 1027.92 -7099.61)
(-118611 976.334 -6918.36)
(-117945 930.012 -6599.53)
(-117466 886.307 -6211.63)
(-117144 838.343 -5806.79)
(-116951 792.394 -5405.18)
(-116864 756.127 -5030.5)
(-116857 721.785 -4677.07)
(-116913 688.721 -4338.38)
(-117018 656.94 -4020.28)
(-117158 625.923 -3718.73)
(-117311 596.035 -3424.82)
(-117459 569.006 -3129.99)
(-117585 549.214 -2825.28)
(-117662 539.983 -2502.93)
(-117665 546.937 -2154.81)
(-117567 573.614 -1773.89)
(-117342 620.75 -1360.33)
(-116964 689.614 -912.335)
(-116430 779.435 -406.52)
(-115798 893.912 181.246)
(-115078 1036.44 884.931)
(-113942 1207.07 1748.77)
(-111404 1372.24 2785.26)
(-106834 1623.04 4431.27)
(-104139 2302.94 7577.66)
(-107638 3341.57 14063)
(-103082 9237.42 39956.5)
(-2717.14 3469.09 15412.8)
(-122467 -297.785 -18002.1)
(-124599 -162.712 -14212.1)
(-125809 -336.367 -12288.7)
(-126905 -503.435 -9993.05)
(-127016 -278.869 -8489.66)
(-126949 -173.003 -7251.72)
(-127384 -336.354 -6203.87)
(-128029 -383.772 -5465.04)
(-128522 -237.948 -4664.21)
(-128690 -93.7209 -3717.6)
(-128820 -32.6289 -3060.79)
(-129082 -12.6769 -2600.18)
(-129411 -1.01096 -2246.8)
(-129769 2.73422 -1999.12)
(-130131 5.487 -1859.97)
(-130472 5.3582 -1836.92)
(-130773 2.86723 -1933.72)
(-131014 -2.33469 -2148.45)
(-131182 -11.0102 -2479.58)
(-131257 -22.4828 -2926.58)
(-131177 -38.0915 -3503.26)
(-130823 -56.8491 -4191.14)
(-130090 -82.3573 -4876.51)
(-129016 -113.882 -5327.42)
(-127803 -155.569 -5386.26)
(-126673 -200.549 -5066.67)
(-125754 -245.919 -4490.45)
(-125094 -285.743 -3783.06)
(-124672 -322.166 -3045.09)
(-124428 -362.513 -2342.24)
(-124321 -401.814 -1700.03)
(-124313 -436.715 -1116.59)
(-124353 -465.755 -598.043)
(-124413 -492.594 -140.862)
(-124470 -519.966 259.641)
(-124504 -547.156 613.544)
(-124495 -574.678 926.406)
(-124425 -602.911 1197.14)
(-124271 -630.529 1424.42)
(-124006 -657.022 1602.66)
(-123599 -680.859 1725.75)
(-123028 -700.676 1790.46)
(-122270 -715.429 1807.82)
(-121302 -727.044 1786.4)
(-120093 -735.701 1722.44)
(-118613 -741.223 1666.35)
(-116782 -748.344 1714.7)
(-114168 -763.465 1984.64)
(-109696 -801.578 2617.94)
(-103215 -609.892 3902.55)
(-99101.4 -92.251 6777.97)
(-99154.9 342.257 5362.73)
(-101189 6652.27 5642.77)
(11726 120.649 -806.645)
(-118141 1462.56 -17119.5)
(-120437 1540.61 -12692.3)
(-121680 1345.58 -10456)
(-122238 1158.37 -8338.69)
(-121916 1378.55 -7184.27)
(-122106 1469.85 -6494.06)
(-122544 1283.83 -5536.95)
(-122709 1218.16 -4729.48)
(-122822 1358.14 -3941.79)
(-122874 1500.19 -3207.85)
(-122925 1557.81 -2681.87)
(-123041 1572.71 -2310.07)
(-123198 1579.78 -2041.7)
(-123382 1579.61 -1873.34)
(-123570 1579.18 -1810.13)
(-123748 1576.44 -1861.41)
(-123896 1572.21 -2031.73)
(-123994 1566.68 -2322.77)
(-124026 1559.87 -2733.86)
(-123970 1553.75 -3269.61)
(-123760 1548.5 -3944.27)
(-123267 1546.24 -4752.57)
(-122381 1542.84 -5578.93)
(-121146 1536.48 -6191.03)
(-119780 1517.8 -6406.56)
(-118525 1488.99 -6227.56)
(-117532 1450.35 -5767.15)
(-116865 1406.89 -5153.29)
(-116514 1356.66 -4492.03)
(-116404 1293.36 -3847.73)
(-116477 1224.2 -3250.56)
(-116693 1154.53 -2711.55)
(-116999 1086.84 -2229.17)
(-117367 1017.62 -1797.33)
(-117764 944.916 -1411.39)
(-118162 871.249 -1058.55)
(-118539 798.119 -732.959)
(-118873 727.299 -436.604)
(-119136 662.754 -172.557)
(-119300 608.324 53.0976)
(-119338 569.526 235.192)
(-119194 552.845 351.381)
(-118808 563.321 386.104)
(-118120 602.63 328.034)
(-117065 670.876 189.578)
(-115601 771.307 11.3218)
(-113607 900.7 -125.326)
(-110724 1054.31 -104.165)
(-105963 1264.85 185.52)
(-99984.6 1701.78 1179.36)
(-96277 2127.36 3738.16)
(-95749.5 2372.16 5367.29)
(-93788.6 19271.5 3850.12)
(55493.4 238.672 -2129.55)
(-119906 -339.336 -16426.4)
(-122492 9.27373 -13325.9)
(-123778 -97.672 -11426.8)
(-125676 -323.306 -9445.51)
(-126689 -325.793 -7989.72)
(-127204 -531.684 -7071.24)
(-127982 -602.521 -6316.15)
(-128729 -511.75 -5541.88)
(-129143 -373.369 -4661.15)
(-129471 -326.989 -3873.49)
(-129876 -293.445 -3280.9)
(-130315 -272.196 -2810.75)
(-130806 -251.922 -2446.77)
(-131334 -234.273 -2200.27)
(-131880 -214.931 -2083.87)
(-132425 -195.727 -2112.4)
(-132947 -176.522 -2299.89)
(-133425 -158.951 -2659.07)
(-133843 -142.609 -3197.93)
(-134189 -130.193 -3922.69)
(-134391 -120.758 -4862.64)
(-134241 -120.229 -6043.54)
(-133466 -133.075 -7332.94)
(-132030 -170.272 -8322.61)
(-130255 -225.565 -8631.75)
(-128547 -293.777 -8261.49)
(-127142 -370.783 -7519.86)
(-126102 -456.668 -6636.72)
(-125396 -554.231 -5751.91)
(-124954 -663.258 -4936.27)
(-124703 -775.703 -4221.39)
(-124579 -893.887 -3593.67)
(-124530 -1018.92 -3033.4)
(-124528 -1149.74 -2524.65)
(-124552 -1288.96 -2053.97)
(-124584 -1437.86 -1609.31)
(-124615 -1596.3 -1179.97)
(-124641 -1763.78 -765.584)
(-124655 -1940.05 -372.856)
(-124652 -2126.61 -13.7078)
(-124622 -2329.46 295.878)
(-124553 -2552.72 535.609)
(-124426 -2798.16 686.055)
(-124232 -3072.09 740.233)
(-123941 -3386.09 671.017)
(-123536 -3751.78 464.461)
(-122882 -4185.35 110.49)
(-121322 -4727.81 -416.304)
(-117394 -5401.36 -976.398)
(-110517 -5966.98 -1085.65)
(-106941 -6383.73 -2570.44)
(-108294 -3522.29 -4482.99)
(-130474 -7460.62 -3232.64)
(-29051.6 -1524.69 -17884.4)
(-117828 824.15 -15120.9)
(-120190 1215.76 -11721.9)
(-121423 1095.48 -9896.83)
(-122814 867.134 -7950.52)
(-123459 851.046 -6949.7)
(-123775 613.116 -6215.97)
(-124035 509.446 -5169.09)
(-124385 570.817 -4315.56)
(-124669 681.287 -3562.75)
(-124950 692.494 -2903.09)
(-125244 689.735 -2370.7)
(-125572 675.67 -1934.78)
(-125951 663.066 -1601.55)
(-126370 650.496 -1378.36)
(-126806 643.51 -1282.35)
(-127242 641.129 -1326.52)
(-127654 644.43 -1527.09)
(-128020 652.508 -1900.49)
(-128329 666.176 -2460.26)
(-128568 683.152 -3217.18)
(-128670 706.121 -4198.7)
(-128431 731.621 -5435.22)
(-127576 758.674 -6795.41)
(-126074 777.898 -7862.3)
(-124264 791.899 -8231.74)
(-122583 799.004 -7898.17)
(-121289 801.266 -7171.47)
(-120473 798.459 -6289.02)
(-120112 784.424 -5399.96)
(-120123 757.847 -4570.88)
(-120435 728.12 -3840.83)
(-120997 694.819 -3198.19)
(-121768 658.773 -2624.75)
(-122728 623.216 -2105.38)
(-123859 586.688 -1624.41)
(-125151 549.039 -1168.9)
(-126603 512.373 -731.408)
(-128217 479.315 -313.454)
(-129994 452.112 72.0866)
(-131931 431.314 419.4)
(-134049 414.506 718.666)
(-136407 403.405 957.936)
(-139049 403.687 1114.07)
(-141995 418.98 1160.2)
(-145254 452.332 1059.96)
(-148794 505.443 769.413)
(-152421 577.932 242.863)
(-155408 657.159 -493.599)
(-156149 746.544 -1179.58)
(-153929 1084.75 -1671.64)
(-151295 1785.21 -4362.59)
(-151577 7757.7 -9752.39)