/*--------------------------------*- C++ -*----------------------------------*\
| =========                 |                                                 |
| \\      /  F ield         | OpenFOAM: The Open Source CFD Toolbox           |
|  \\    /   O peration     | Version:  4.1                                   |
|   \\  /    A nd           | Web:      www.OpenFOAM.org                      |
|    \\/     M anipulation  |                                                 |
\*---------------------------------------------------------------------------*/
FoamFile
{
    version     2.0;
    format      ascii;
    class       volVectorField;
    location    "72";
    object      U;
}
// * * * * * * * * * * * * * * * * * * * * * * * * * * * * * * * * * * * * * //

dimensions      [0 1 -1 0 0 0 0];

internalField   nonuniform List<vector> 
4432
(
(39.9818 3.54443e-05 0.0502505)
(39.9166 -5.47199e-05 0.090104)
(39.8163 -1.6753e-05 0.118501)
(39.6788 -7.16048e-05 0.145956)
(39.5029 -0.000205188 0.174685)
(39.2899 -0.000266788 0.204935)
(39.0398 -0.000256973 0.237012)
(38.7509 -0.000252404 0.270413)
(38.4207 -0.000278245 0.305111)
(38.0482 -0.00033297 0.340505)
(37.634 -0.000387832 0.374701)
(37.1806 -0.00035064 0.408158)
(36.6915 -0.000516704 0.434473)
(36.1841 -0.000505668 0.453515)
(35.6628 -0.00325135 0.445128)
(35.2443 -0.00750642 0.389492)
(34.8964 -0.00619408 0.428083)
(34.7627 -0.00341539 0.331816)
(34.8508 -0.00177768 0.243817)
(34.8084 0.00212241 0.392202)
(34.5562 -0.00109694 0.500899)
(34.1793 -0.011134 0.630188)
(33.6922 -0.021851 0.708447)
(33.1387 -0.0311456 0.700552)
(32.5202 -0.0384083 0.685396)
(31.8632 -0.0442489 0.562738)
(31.2554 -0.0406917 0.364742)
(30.7248 -0.0266326 0.154583)
(30.3097 -0.0179989 0.071639)
(29.9952 -0.0232118 0.089264)
(29.7304 -0.0407817 0.221812)
(29.4338 -0.0610146 0.476531)
(29.0237 -0.0666347 0.579167)
(28.5807 -0.0414345 0.213)
(28.3246 -0.00151065 -0.554577)
(28.2377 0.0259148 -0.962325)
(28.2088 0.0333728 -0.894975)
(28.085 0.0236403 -0.786073)
(27.9006 0.0230208 -0.659586)
(27.7798 0.0261819 -0.517538)
(27.7292 0.0164413 -0.460905)
(27.6984 0.00883629 -0.514547)
(27.6197 0.00329122 -0.474133)
(27.5078 0.00850392 -0.4218)
(27.4805 0.0246169 -0.407338)
(27.4982 0.0375457 -0.405968)
(27.5827 0.0245281 -0.388163)
(27.7154 -0.0038599 -0.394778)
(27.8094 0.0204414 -0.395239)
(27.9293 0.0604738 -0.425364)
(28.255 0.0415284 -0.33646)
(28.7917 0.0250602 -0.383694)
(29.0691 -0.00845801 -0.504762)
(29.4023 0.0749761 -0.0366423)
(39.9819 3.54493e-05 0.0502527)
(39.9167 -5.47228e-05 0.0901267)
(39.8163 -1.68645e-05 0.118606)
(39.6787 -7.13256e-05 0.146023)
(39.5027 -0.000204707 0.174654)
(39.2899 -0.00026636 0.204922)
(39.0399 -0.000256798 0.236925)
(38.751 -0.000252072 0.270281)
(38.4207 -0.000278543 0.304997)
(38.0483 -0.000334026 0.340258)
(37.6342 -0.000389377 0.374663)
(37.1807 -0.000352995 0.407917)
(36.6921 -0.000519252 0.435374)
(36.1793 -0.000511194 0.453736)
(35.6609 -0.0032379 0.452527)
(35.1923 -0.00756753 0.399806)
(34.8383 -0.00627176 0.37709)
(34.7489 -0.00342903 0.286544)
(34.8405 -0.00175895 0.235601)
(34.8287 0.00201544 0.404496)
(34.5784 -0.00122033 0.488791)
(34.1998 -0.0112115 0.548886)
(33.7232 -0.0219657 0.591723)
(33.1663 -0.0315465 0.585758)
(32.5279 -0.0392156 0.576844)
(31.8348 -0.0460209 0.443909)
(31.1696 -0.0442262 0.259057)
(30.5966 -0.0309427 0.128913)
(30.1262 -0.022775 0.0452119)
(29.7377 -0.0299757 -0.0623829)
(29.4743 -0.0491576 -0.193235)
(29.2522 -0.0748585 -0.217094)
(28.9853 -0.0838589 -0.0471378)
(28.6022 -0.0601621 0.106393)
(28.3015 -0.0156725 -0.148784)
(28.087 0.0152355 -0.441693)
(27.961 0.0262417 -0.401798)
(27.7872 0.0165395 -0.413636)
(27.6046 0.0159662 -0.37549)
(27.4579 0.0277315 -0.300042)
(27.3531 0.0239876 -0.237519)
(27.2774 0.0178823 -0.233064)
(27.1658 0.0122118 -0.183801)
(27.0612 0.0170866 -0.166359)
(27.0117 0.0346942 -0.173096)
(27.0052 0.0493475 -0.216179)
(27.0505 0.0374885 -0.147455)
(27.2568 0.00668995 -0.0837233)
(27.4377 0.0356353 -0.0706411)
(27.5837 0.0827972 -0.127576)
(27.982 0.0375991 -0.240353)
(28.4986 0.0162945 -0.354095)
(28.8365 -0.0216771 -0.437169)
(29.3316 0.0657538 0.0706007)
(40.0076 3.64939e-05 0.0177645)
(40.0325 -6.39589e-05 0.0558165)
(40.0578 -3.11667e-05 0.0949183)
(40.0802 -9.29072e-05 0.134292)
(40.0988 -0.000230621 0.174247)
(40.1153 -0.000290483 0.215369)
(40.1309 -0.00026494 0.258008)
(40.1439 -0.000228923 0.302336)
(40.1522 -0.000245968 0.348433)
(40.154 -0.000297501 0.39612)
(40.1479 -0.000380574 0.4448)
(40.1306 -0.000502267 0.492637)
(40.0983 -0.000382195 0.537154)
(40.0333 -0.000415055 0.567953)
(39.9368 0.00348893 0.59078)
(39.6587 0.00517227 0.563818)
(39.3578 0.00624614 0.436951)
(38.6473 0.00681747 0.358173)
(37.6637 -0.000826968 0.411401)
(36.8461 -0.00275154 0.476702)
(36.1419 0.000232024 0.547642)
(35.5148 0.00363692 0.633531)
(34.9729 0.0068028 0.722048)
(34.4527 0.00965332 0.819681)
(33.952 0.0111786 0.89441)
(33.4606 0.0126159 0.903826)
(32.9615 0.0143803 0.859983)
(32.4298 0.0209183 0.802522)
(31.816 0.0342437 0.726573)
(31.206 0.0407385 0.620004)
(30.6363 0.0430071 0.531611)
(30.0987 0.0434851 0.539579)
(29.6772 0.040387 0.535447)
(29.4058 0.0303511 0.451551)
(29.2263 0.00980879 0.404224)
(29.0632 -0.0259528 0.525899)
(28.9225 -0.070661 0.689213)
(28.7384 -0.10296 0.755643)
(28.5083 -0.109505 0.715081)
(28.26 -0.105583 0.535207)
(28.0616 -0.117892 0.392097)
(27.9997 -0.14836 0.409548)
(27.9157 -0.168116 0.437745)
(27.825 -0.180886 0.398564)
(27.7729 -0.19071 0.330918)
(27.7956 -0.193079 0.24717)
(27.8521 -0.19756 0.208108)
(27.9297 -0.201152 0.0905997)
(28.0178 -0.187382 -0.026259)
(28.056 -0.21886 0.0724261)
(28.3338 -0.188914 -0.280742)
(28.2769 -0.141937 -0.445522)
(28.9836 -0.0851565 -0.560718)
(29.7044 0.0104877 -0.836657)
(40.0077 3.64945e-05 0.0177616)
(40.0325 -6.39597e-05 0.0558172)
(40.0579 -3.11643e-05 0.0949071)
(40.0801 -9.2894e-05 0.134263)
(40.0986 -0.000230601 0.174215)
(40.1153 -0.000290447 0.215351)
(40.131 -0.000264914 0.258022)
(40.1439 -0.000228932 0.302368)
(40.1522 -0.000245895 0.348485)
(40.1536 -0.00029957 0.396122)
(40.1477 -0.000381471 0.444719)
(40.1303 -0.00050043 0.492683)
(40.0978 -0.000407546 0.536754)
(40.0382 -0.000318469 0.570821)
(39.9373 0.00305377 0.582931)
(39.7403 0.00514053 0.551954)
(39.4154 0.00686895 0.455461)
(38.6822 0.00707368 0.349154)
(37.6799 -0.000848045 0.394124)
(36.8376 -0.00257759 0.466833)
(36.154 0.000337148 0.52715)
(35.5328 0.00378315 0.602448)
(34.9913 0.00708243 0.676659)
(34.4803 0.0103054 0.758588)
(33.9909 0.0122188 0.825944)
(33.5234 0.0146574 0.833586)
(33.0412 0.0184051 0.822931)
(32.5144 0.024632 0.805835)
(31.9673 0.034983 0.730968)
(31.4479 0.0465326 0.592775)
(30.9024 0.0588272 0.480221)
(30.2998 0.0713897 0.466268)
(29.7696 0.0640941 0.441485)
(29.4564 0.0462131 0.386657)
(29.3084 0.0157187 0.340519)
(29.2394 -0.0269978 0.401889)
(29.2098 -0.074503 0.503196)
(29.1345 -0.107629 0.557529)
(28.9962 -0.116981 0.5468)
(28.9109 -0.120896 0.456418)
(28.8234 -0.130743 0.362805)
(28.8492 -0.150596 0.353011)
(28.8389 -0.170753 0.351108)
(28.7912 -0.180243 0.304069)
(28.7627 -0.188436 0.224593)
(28.7744 -0.188081 0.131259)
(28.7999 -0.189589 0.100826)
(28.8292 -0.193443 0.0167605)
(28.859 -0.198455 -0.0433982)
(28.8258 -0.20972 -0.161733)
(28.923 -0.136423 -0.576994)
(28.8959 -0.108725 -0.727757)
(29.5929 -0.0675207 -0.711523)
(30.254 0.0260173 -0.973762)
(39.9995 3.56329e-05 0.0249016)
(39.9881 -6.16622e-05 0.072324)
(39.9585 -2.9633e-05 0.116535)
(39.9104 -9.07226e-05 0.158962)
(39.844 -0.000225781 0.20122)
(39.7615 -0.000279445 0.244319)
(39.6642 -0.000249352 0.288814)
(39.5514 -0.00021906 0.335076)
(39.4222 -0.000244344 0.383415)
(39.2762 -0.000321944 0.433956)
(39.1142 -0.000431665 0.486622)
(38.9363 -0.000505967 0.54113)
(38.7406 -0.000516538 0.597179)
(38.5263 -0.000153861 0.654191)
(38.2767 0.000182007 0.715281)
(38.0329 0.00177887 0.788824)
(37.6767 0.00239623 0.831029)
(37.2878 0.0046885 0.956442)
(36.9134 0.00200135 1.12861)
(36.498 0.00170679 1.23914)
(36.0288 0.00297494 1.28402)
(35.5384 0.00503574 1.29881)
(35.0612 0.00778695 1.32437)
(34.5826 0.0120125 1.36371)
(34.0996 0.0143713 1.40088)
(33.605 0.0180338 1.38834)
(33.0605 0.0252151 1.33143)
(32.4371 0.0354392 1.289)
(31.7167 0.0435198 1.18719)
(30.9579 0.0392693 1.08009)
(30.1345 0.0359534 1.08572)
(29.2989 0.0476673 1.12847)
(28.6013 0.0813643 1.0581)
(27.963 0.136304 0.814472)
(27.5109 0.173916 0.279091)
(27.5457 0.0561733 0.235328)
(27.3917 -0.0762957 0.465992)
(27.1225 -0.127391 0.538959)
(26.7075 -0.128263 0.560426)
(26.4428 -0.0732555 0.323785)
(26.3583 -0.0895102 0.287804)
(26.3417 -0.1511 0.472239)
(26.2726 -0.180583 0.451809)
(26.1311 -0.188513 0.315111)
(26.1117 -0.191235 0.151461)
(26.1793 -0.180988 -0.00278711)
(26.3168 -0.180384 -0.0966327)
(26.478 -0.164603 -0.234378)
(26.6881 -0.183807 -0.276241)
(27.1502 -0.147562 -0.525685)
(27.5311 -0.0730599 -0.649658)
(27.6918 -0.0420594 -0.633415)
(27.6643 -0.0265352 -0.914237)
(27.7459 -0.0325398 -1.44877)
(39.9995 3.56332e-05 0.0248997)
(39.9881 -6.16622e-05 0.072329)
(39.9586 -2.96307e-05 0.116535)
(39.9103 -9.07136e-05 0.158962)
(39.8439 -0.000225767 0.20122)
(39.7616 -0.00027943 0.244321)
(39.6643 -0.000249334 0.288815)
(39.5515 -0.000219037 0.335066)
(39.4221 -0.000244314 0.383402)
(39.2761 -0.0003221 0.43392)
(39.114 -0.000432143 0.486584)
(38.9361 -0.000506363 0.541129)
(38.7412 -0.000518884 0.597079)
(38.5261 -0.000151695 0.654011)
(38.2833 0.00017397 0.712458)
(38.0113 0.00176052 0.781066)
(37.6885 0.00201594 0.85203)
(37.2997 0.0049305 0.960902)
(36.912 0.00212887 1.1217)
(36.5038 0.00177871 1.22497)
(36.0419 0.00308832 1.2647)
(35.5589 0.00523094 1.27203)
(35.0899 0.00819386 1.28726)
(34.6136 0.0131051 1.33812)
(34.124 0.0160152 1.38197)
(33.6288 0.0203252 1.37558)
(33.0839 0.0286047 1.35174)
(32.4788 0.0398188 1.33475)
(31.8234 0.0491684 1.26674)
(31.1051 0.0503741 1.14565)
(30.2398 0.0459225 1.14225)
(29.4064 0.0547208 1.18322)
(28.7318 0.0940762 1.06868)
(28.28 0.138499 0.758039)
(28.0605 0.135678 0.410168)
(28.0125 0.0643287 0.213691)
(27.9522 -0.0217024 0.147547)
(27.7671 -0.0749598 0.0860907)
(27.5157 -0.0826071 -0.0141421)
(27.3761 -0.0506832 -0.225752)
(27.1094 -0.0581272 -0.174444)
(27.0657 -0.0965619 -0.111343)
(26.9706 -0.122005 -0.16695)
(26.8249 -0.138059 -0.291555)
(26.7403 -0.147936 -0.41788)
(26.7594 -0.140215 -0.545498)
(26.8152 -0.135761 -0.651683)
(26.8952 -0.122 -0.730225)
(27.0377 -0.133681 -0.795613)
(27.4272 -0.103955 -0.9883)
(27.7027 -0.0621513 -0.893998)
(27.8297 -0.0368163 -0.822588)
(28.0225 -0.0868724 -0.619835)
(27.876 -0.0215857 -1.61887)
(39.9992 3.46418e-05 0.0315)
(39.9868 -5.90316e-05 0.094072)
(39.9573 -3.04139e-05 0.156319)
(39.9103 -9.29763e-05 0.219472)
(39.8452 -0.000229989 0.284365)
(39.7629 -0.000287174 0.351382)
(39.664 -0.000260792 0.420708)
(39.547 -0.000231476 0.49249)
(39.4099 -0.000251925 0.566884)
(39.2517 -0.000321704 0.643974)
(39.0716 -0.000412789 0.723802)
(38.8691 -0.000471453 0.80651)
(38.642 -0.000486078 0.892455)
(38.3884 -0.000306428 0.983108)
(38.102 -0.0001896 1.08138)
(37.7897 0.00110096 1.19181)
(37.4306 0.00144632 1.34074)
(36.9859 0.00162085 1.41623)
(36.5974 0.00172131 1.47716)
(36.245 0.00279479 1.56109)
(35.8699 0.00398164 1.64666)
(35.467 0.00433993 1.70198)
(35.027 0.00429359 1.75629)
(34.5294 0.00534512 1.8253)
(33.9969 0.00427589 1.90636)
(33.4243 0.00381842 1.94778)
(32.7478 0.008534 1.97725)
(31.9651 0.0147152 2.05487)
(31.0661 0.0131851 2.10779)
(29.9756 0.0130505 2.10923)
(28.8302 0.0184693 2.13979)
(27.8534 0.0317914 2.05722)
(27.0167 0.0610951 1.77561)
(26.3381 0.106338 1.09123)
(26.3072 0.107122 0.144538)
(26.5406 -0.0432424 0.43764)
(26.4351 -0.189687 1.00587)
(26.0234 -0.283582 1.19651)
(25.4081 -0.24427 1.14995)
(25.1713 -0.109632 0.579444)
(25.0672 -0.082562 0.470058)
(25.063 -0.128282 0.763944)
(24.9565 -0.157856 0.82243)
(24.8044 -0.151271 0.656068)
(24.7693 -0.139489 0.462119)
(24.9136 -0.128246 0.299224)
(25.0243 -0.127315 0.138811)
(25.1955 -0.089469 0.0385401)
(25.4246 -0.0811864 -0.138735)
(25.8324 -0.0927446 -0.469227)
(26.4408 -0.112778 -0.715586)
(26.682 -0.104831 -0.696408)
(26.8509 -0.0903945 -0.714268)
(27.0853 0.0388412 -0.864207)
(39.9992 3.46421e-05 0.0314988)
(39.9868 -5.90315e-05 0.0940763)
(39.9574 -3.04117e-05 0.156322)
(39.9102 -9.29672e-05 0.219473)
(39.8451 -0.000229974 0.284363)
(39.7629 -0.000287156 0.351376)
(39.6641 -0.00026077 0.420697)
(39.547 -0.000231449 0.49248)
(39.4099 -0.000251895 0.566882)
(39.2515 -0.000321643 0.643982)
(39.0715 -0.000412791 0.723837)
(38.869 -0.000471243 0.806555)
(38.6423 -0.000486638 0.892497)
(38.3884 -0.000304281 0.982865)
(38.1044 -0.00019027 1.08085)
(37.7881 0.00113132 1.19095)
(37.4468 0.00129389 1.33575)
(37.0013 0.00154581 1.44617)
(36.6031 0.00166339 1.48308)
(36.2537 0.00282984 1.54934)
(35.8804 0.00415688 1.62684)
(35.478 0.00464248 1.67666)
(35.0235 0.00446284 1.73191)
(34.5147 0.00513357 1.83612)
(33.9929 0.00414803 1.91888)
(33.4134 0.00370049 1.97475)
(32.7119 0.00971937 2.0684)
(31.915 0.0169129 2.18836)
(31.0301 0.0153055 2.25929)
(29.9595 0.015018 2.25501)
(28.8779 0.0190623 2.22267)
(27.9705 0.0306009 2.14956)
(27.189 0.0580534 1.98505)
(26.5105 0.116583 1.51685)
(26.406 0.132258 0.605236)
(26.6215 -0.028619 0.339277)
(26.6254 -0.20327 0.405292)
(26.4051 -0.370266 0.446779)
(26.0456 -0.442633 0.495731)
(25.7841 -0.348964 0.138645)
(25.5771 -0.141068 0.0837449)
(25.4951 -0.128246 0.212113)
(25.3735 -0.124526 0.104098)
(25.2086 -0.124042 -0.0513039)
(25.0371 -0.109434 -0.187389)
(25.13 -0.100691 -0.340052)
(25.1921 -0.0994629 -0.51441)
(25.3827 -0.0763064 -0.669046)
(25.6562 -0.0559166 -0.799849)
(25.9906 -0.0612015 -0.994237)
(26.5553 -0.0971302 -1.15233)
(26.7528 -0.107819 -1.0927)
(26.9614 -0.166381 -1.16659)
(27.5837 0.0139515 -1.32528)
(39.9992 3.43788e-05 0.038941)
(39.9871 -5.71064e-05 0.117153)
(39.9582 -2.67852e-05 0.195515)
(39.9123 -9.04969e-05 0.274681)
(39.8486 -0.000228842 0.35522)
(39.7684 -0.000287005 0.437685)
(39.6723 -0.000260911 0.522565)
(39.5588 -0.000230866 0.610332)
(39.4261 -0.000248957 0.701451)
(39.2731 -0.000316772 0.796366)
(39.0992 -0.000401739 0.895525)
(38.9039 -0.000467736 0.999495)
(38.686 -0.000467011 1.10915)
(38.4429 -0.000420611 1.22623)
(38.1745 -0.00013483 1.35339)
(37.8725 -4.18725e-05 1.49593)
(37.5625 0.00161831 1.65803)
(37.1621 0.00432648 1.81626)
(36.6812 0.00446755 1.88656)
(36.25 0.00398046 1.94076)
(35.8394 0.00547946 2.01797)
(35.4151 0.00457187 2.10073)
(34.9422 0.00182245 2.24436)
(34.3825 -0.00112276 2.38787)
(33.7644 -0.00779198 2.52427)
(33.0607 -0.0119542 2.64759)
(32.1889 -0.00579073 2.78051)
(31.2261 0.00232817 2.99696)
(30.1691 0.00131982 3.20345)
(29.0057 0.00151648 3.27521)
(27.9116 0.00979526 3.18468)
(26.9511 0.0296626 2.91657)
(26.0815 0.0645672 2.33522)
(25.4431 0.128377 1.12651)
(25.6023 0.188182 -0.312055)
(25.3693 -0.0666746 0.00810422)
(25.3346 -0.455725 1.75167)
(24.743 -0.695193 2.59259)
(24.2213 -0.7293 2.70137)
(23.8613 -0.325636 1.50751)
(23.6327 -0.15733 0.852891)
(23.7455 -0.222782 1.04985)
(23.6828 -0.269757 0.955839)
(23.6244 -0.264586 0.632498)
(23.6139 -0.244219 0.36731)
(23.7186 -0.228622 0.139464)
(23.8633 -0.220129 -0.0730142)
(24.1638 -0.226708 -0.325962)
(24.2522 -0.178028 -0.771396)
(24.3398 -0.18216 -0.783688)
(24.6274 -0.213143 -1.014)
(24.8288 -0.186767 -1.11782)
(25.3071 -0.263934 -1.25974)
(25.3902 -0.150155 -1.3295)
(39.9992 3.4379e-05 0.0389396)
(39.9871 -5.71063e-05 0.117159)
(39.9582 -2.6783e-05 0.195518)
(39.9121 -9.04882e-05 0.274685)
(39.8485 -0.000228827 0.355228)
(39.7685 -0.000286982 0.437694)
(39.6724 -0.000260879 0.522571)
(39.5588 -0.000230817 0.610336)
(39.426 -0.000248912 0.701455)
(39.2729 -0.000316631 0.796375)
(39.0991 -0.0004019 0.895548)
(38.9039 -0.000466742 0.99953)
(38.686 -0.000463639 1.10921)
(38.4433 -0.000417154 1.22623)
(38.1744 -0.000119011 1.35338)
(37.8757 -7.16266e-05 1.49542)
(37.5564 0.00178468 1.65829)
(37.187 0.00383338 1.83127)
(36.7303 0.00428001 1.89336)
(36.2839 0.00401545 1.93586)
(35.8623 0.00611576 2.01062)
(35.4241 0.00600823 2.10241)
(34.8963 0.00176006 2.2418)
(34.3292 -0.00142929 2.38482)
(33.7292 -0.00803889 2.51822)
(32.9778 -0.0125439 2.67292)
(32.1084 -0.00492226 2.87061)
(31.1989 0.00364442 3.10473)
(30.1936 0.00217798 3.27474)
(29.0884 0.0013247 3.31871)
(28.0325 0.00846306 3.21296)
(27.1044 0.0273883 2.9874)
(26.3341 0.0575871 2.55259)
(25.8333 0.125761 1.6227)
(26.0299 0.258959 0.255109)
(26.2432 -0.00676349 -0.134313)
(26.4512 -0.449709 -0.0324138)
(26.2365 -0.67672 0.197228)
(25.7017 -0.821271 0.340025)
(25.1714 -0.735255 0.339808)
(24.7289 -0.274816 0.309764)
(24.7031 -0.198877 0.268793)
(24.6576 -0.197663 -0.0147279)
(24.5233 -0.187854 -0.282219)
(24.4981 -0.166355 -0.512641)
(24.5786 -0.143947 -0.726679)
(24.7301 -0.121076 -0.928145)
(24.946 -0.117517 -1.14678)
(25.1295 -0.147486 -1.3009)
(25.265 -0.0627629 -1.67411)
(25.6748 0.0430369 -2.15099)
(25.5378 0.0117058 -1.87335)
(25.7803 -0.0487928 -1.83617)
(25.9418 0.137853 -2.19807)
(39.9992 3.31633e-05 0.0463518)
(39.9875 -5.30892e-05 0.139473)
(39.9593 -2.75086e-05 0.232928)
(39.9149 -8.97898e-05 0.3276)
(39.8535 -0.000222679 0.424278)
(39.7762 -0.00027836 0.523705)
(39.6837 -0.000254497 0.626476)
(39.5743 -0.000228454 0.733117)
(39.4464 -0.000249434 0.844133)
(39.2987 -0.000316418 0.960027)
(39.1309 -0.000396115 1.08131)
(38.9427 -0.000446086 1.2086)
(38.7333 -0.000432597 1.34277)
(38.5018 -0.000339379 1.4852)
(38.2477 -0.000151166 1.63812)
(37.9705 0.000220166 1.80509)
(37.6766 0.00118722 1.98741)
(37.3731 0.00519011 2.20664)
(36.9862 0.00825005 2.34941)
(36.545 0.00674691 2.43084)
(36.0558 0.00623621 2.4954)
(35.5007 0.00235638 2.59554)
(34.9291 -0.00322892 2.77277)
(34.3622 -0.00873184 3.00327)
(33.6983 -0.0183191 3.25963)
(32.8854 -0.0208033 3.53706)
(31.8311 -0.00897766 3.78194)
(30.7163 0.0071977 4.05075)
(29.6266 0.011056 4.29526)
(28.5033 0.0112911 4.35725)
(27.4109 0.0209071 4.18893)
(26.3619 0.0512292 3.81125)
(25.2137 0.117056 3.08748)
(24.1682 0.318529 1.63705)
(23.7584 0.667253 0.289442)
(15.6008 0.0454239 2.6074)
(16.9283 -0.566204 2.11632)
(17.5906 -1.06059 1.63296)
(17.9989 -1.65765 2.13449)
(19.45 -0.921029 0.317408)
(20.4743 -0.286662 0.725837)
(20.6337 -0.708712 1.98579)
(20.75 -0.628412 1.72963)
(20.9725 -0.520284 1.30224)
(21.2228 -0.456853 0.930549)
(21.4158 -0.432502 0.602583)
(21.6338 -0.393776 0.274936)
(21.7989 -0.401063 -0.0346763)
(21.9626 -0.3856 -0.381019)
(21.9212 -0.311757 -0.615828)
(21.8032 -0.21866 -0.857369)
(21.7413 -0.182932 -1.03651)
(21.9727 -0.203425 -1.18044)
(21.5198 -0.334169 -1.56806)
(39.9993 3.3162e-05 0.0463502)
(39.9875 -5.30815e-05 0.139478)
(39.9594 -2.75386e-05 0.232932)
(39.9147 -8.96439e-05 0.327607)
(39.8533 -0.000223255 0.424291)
(39.7762 -0.000280132 0.523717)
(39.6837 -0.000256516 0.626482)
(39.5744 -0.000230497 0.733116)
(39.4463 -0.000251458 0.844129)
(39.2986 -0.000318346 0.960028)
(39.1308 -0.00039819 1.08133)
(38.9427 -0.000447505 1.20864)
(38.7335 -0.000429589 1.34286)
(38.5021 -0.000335949 1.4853)
(38.248 -0.000137055 1.63834)
(37.9721 0.000190399 1.80483)
(37.679 0.00136206 1.98891)
(37.3821 0.00451177 2.19303)
(37.0538 0.00879146 2.35842)
(36.6331 0.00675318 2.46257)
(36.1165 0.00736723 2.55225)
(35.5591 0.00394829 2.67914)
(34.9442 -0.00354224 2.81446)
(34.3235 -0.0089359 3.00575)
(33.6256 -0.0190903 3.24383)
(32.7639 -0.0206734 3.52646)
(31.7685 -0.00828836 3.79683)
(30.7695 0.00636143 4.09335)
(29.7292 0.00939682 4.30877)
(28.6235 0.00958962 4.35832)
(27.5641 0.0191821 4.1994)
(26.6029 0.0475038 3.88414)
(25.7272 0.108069 3.31301)
(25.0596 0.388043 2.20055)
(25.3494 1.24939 0.622045)
(26.4543 2.31276 -1.11025)
(27.6296 2.36009 -1.36195)
(27.5966 2.13117 -1.10458)
(26.9217 1.91032 -0.797909)
(26.7487 1.44303 -0.641745)
(24.3857 0.36832 0.129762)
(24.1673 0.0892384 0.229119)
(23.9723 0.15726 -0.0716099)
(23.8086 0.252197 -0.393994)
(23.6768 0.314904 -0.668073)
(23.5159 0.357111 -0.898094)
(23.3221 0.427943 -1.09988)
(23.084 0.471172 -1.26057)
(22.8402 0.492916 -1.40256)
(22.4827 0.602702 -1.57895)
(22.3631 0.728876 -1.69037)
(21.9978 0.807503 -1.74148)
(22.0946 0.821146 -1.68087)
(21.1058 0.804806 -2.15196)
(39.9992 3.2691e-05 0.0535035)
(39.988 -5.10315e-05 0.16097)
(39.9611 -2.30844e-05 0.269031)
(39.9186 -8.46743e-05 0.378761)
(39.86 -0.00021737 0.491016)
(39.7863 -0.000275161 0.606549)
(39.6977 -0.000255401 0.725991)
(39.593 -0.000233029 0.84995)
(39.4703 -0.000255001 0.97904)
(39.3284 -0.000318618 1.11387)
(39.167 -0.00039113 1.25504)
(38.9861 -0.000428085 1.40315)
(38.7852 -0.000396991 1.55893)
(38.5637 -0.000279583 1.72331)
(38.3216 -0.000100406 1.8975)
(38.0605 0.000277525 2.08328)
(37.7817 0.000698949 2.28065)
(37.4966 0.00244465 2.49524)
(37.1966 0.00348446 2.69696)
(36.857 0.00150713 2.88015)
(36.4448 -0.000514 3.04535)
(35.9415 -0.000940262 3.2591)
(35.2561 -0.00537606 3.43381)
(34.5879 -0.0164789 3.66665)
(33.9111 -0.028895 4.06308)
(33.0829 -0.0341267 4.55877)
(31.9838 -0.0091278 4.97017)
(30.7373 0.0211578 5.19535)
(29.534 0.0244894 5.37214)
(28.3255 0.0207718 5.43389)
(27.1547 0.0338621 5.30466)
(25.9954 0.069245 4.9744)
(24.5265 0.167043 4.49374)
(23.4239 0.51897 3.7446)
(12.8206 0.415043 -0.0818097)
(12.3095 0.0280844 2.63754)
(12.4619 -0.305846 5.47921)
(11.9367 0.294202 3.95479)
(11.8386 0.536607 2.97752)
(10.8285 0.110157 2.10592)
(14.0942 -0.242687 1.03074)
(14.433 -0.323631 0.684258)
(14.3924 -0.196716 0.608851)
(14.7514 -0.0865901 0.47365)
(15.0799 -0.0204381 0.302917)
(15.185 0.0394699 0.120483)
(15.1952 0.131205 -0.0871731)
(15.096 0.213883 -0.35371)
(15.0935 0.214234 -0.667508)
(15.0835 0.155363 -0.887599)
(15.1693 0.0640383 -1.13073)
(15.6086 -0.0394946 -1.48431)
(16.3558 -0.127838 -1.86249)
(17.4798 -0.646377 -2.89812)
(39.9993 3.26897e-05 0.0535012)
(39.988 -5.10236e-05 0.160976)
(39.9612 -2.31151e-05 0.269032)
(39.9185 -8.45271e-05 0.378764)
(39.8599 -0.000217947 0.491025)
(39.7863 -0.000276961 0.606559)
(39.6978 -0.000257487 0.725998)
(39.5931 -0.000235207 0.849955)
(39.4702 -0.00025714 0.979049)
(39.3283 -0.000321006 1.11389)
(39.167 -0.000392596 1.25508)
(38.9861 -0.000427735 1.40322)
(38.7853 -0.000395917 1.55903)
(38.5641 -0.000277535 1.72344)
(38.3222 -9.26623e-05 1.89771)
(38.0612 0.000284489 2.08309)
(37.784 0.000724842 2.28043)
(37.4979 0.00243942 2.48868)
(37.2013 0.00344421 2.69543)
(36.8736 0.00155392 2.89597)
(36.4651 0.000261997 3.08975)
(36.0117 -0.00101991 3.28847)
(35.3572 -0.00684031 3.50499)
(34.5979 -0.0160994 3.72457)
(33.851 -0.0301751 4.03053)
(32.9463 -0.0346596 4.48777)
(31.842 -0.00723007 4.84152)
(30.7721 0.0175698 5.18114)
(29.6686 0.0216822 5.43516)
(28.4944 0.0181124 5.47686)
(27.3538 0.0319958 5.28553)
(26.3127 0.0656659 4.96889)
(25.2949 0.181203 4.52077)
(24.307 0.817956 3.90086)
(25.239 2.38773 3.13355)
(12.9911 0.0378047 2.60422)
(13.5445 0.209598 1.0953)
(13.2725 1.07186 0.312659)
(12.2596 1.60057 0.380149)
(12.0209 1.49412 1.01977)
(12.9827 1.00756 1.33392)
(13.1074 0.78589 0.944122)
(12.9532 0.885305 0.473392)
(12.9491 1.00092 0.129812)
(13.0937 1.07024 -0.112168)
(13.2611 1.14183 -0.311507)
(13.4619 1.26919 -0.483676)
(13.67 1.40117 -0.595475)
(13.7932 1.50075 -0.652531)
(13.8778 1.56564 -0.723153)
(13.9785 1.61217 -0.829616)
(14.1933 1.66073 -0.881418)
(14.6138 1.69294 -0.93924)
(14.5434 1.34985 -1.30668)
(39.9993 3.07928e-05 0.0603076)
(39.9887 -4.68102e-05 0.181414)
(39.9634 -2.61092e-05 0.303336)
(39.9233 -8.7202e-05 0.4273)
(39.868 -0.000214957 0.554274)
(39.7983 -0.000270343 0.685106)
(39.7146 -0.000250455 0.820549)
(39.6154 -0.000226471 0.961335)
(39.4988 -0.000243138 1.10819)
(39.3638 -0.000298493 1.26177)
(39.21 -0.000359202 1.42267)
(39.0372 -0.000383483 1.59138)
(38.8451 -0.000335468 1.76829)
(38.6331 -0.000209277 1.95377)
(38.4012 -9.32684e-06 2.14806)
(38.1502 0.000245858 2.35133)
(37.8817 0.00052733 2.56251)
(37.5996 0.000990888 2.78138)
(37.3049 0.000662502 3.00051)
(36.9903 -0.00092444 3.22195)
(36.6389 -0.00318688 3.45946)
(36.246 -0.00278474 3.7551)
(35.7985 0.00030227 4.07661)
(35.1203 -0.0105941 4.41652)
(34.3737 -0.026504 4.89848)
(33.6547 -0.0377943 5.54818)
(32.7592 -0.0121113 6.10325)
(31.575 0.0335413 6.45448)
(30.1355 0.0541805 6.64732)
(28.58 0.0383704 6.62909)
(27.285 0.0318419 6.33609)
(26.1906 0.0408163 5.99754)
(25.0672 0.0733987 5.91842)
(24.299 0.337942 6.68638)
(22.8535 0.90977 8.62523)
(9.73854 0.0814336 2.69601)
(9.06523 0.311782 1.16005)
(7.08448 1.31817 -0.26887)
(-2.22805 -0.742021 -2.86103)
(0.0649048 -1.96468 -3.23175)
(-0.213169 -1.68994 -2.47693)
(2.60868 -1.40879 -0.853103)
(3.4704 -1.15712 -0.441945)
(4.59917 -0.907188 -0.559033)
(6.14349 -0.868066 -1.03292)
(7.76388 -0.993962 -1.47947)
(9.4553 -1.07883 -1.8054)
(11.2881 -1.07974 -2.12645)
(13.0856 -1.10014 -2.46066)
(14.753 -1.14799 -2.77906)
(16.2789 -1.19875 -3.11282)
(17.8494 -1.211 -3.4913)
(19.3678 -1.20585 -3.87327)
(21.1484 -1.27659 -4.69865)
(39.9993 3.0793e-05 0.060305)
(39.9887 -4.681e-05 0.181419)
(39.9634 -2.6107e-05 0.303337)
(39.9232 -8.71954e-05 0.427303)
(39.8679 -0.000214934 0.554282)
(39.7983 -0.000270396 0.685116)
(39.7146 -0.000250294 0.820558)
(39.6154 -0.000227415 0.961343)
(39.4988 -0.000245809 1.1082)
(39.3638 -0.000301805 1.2618)
(39.21 -0.000361663 1.42272)
(39.0373 -0.000384352 1.59144)
(38.8453 -0.00033581 1.76838)
(38.6335 -0.000209001 1.95388)
(38.4017 -9.16202e-06 2.14817)
(38.1508 0.000249259 2.35126)
(37.8825 0.000532056 2.56223)
(37.5997 0.00100673 2.77938)
(37.3025 0.000677776 2.99799)
(36.986 -0.00093507 3.22122)
(36.6372 -0.00308465 3.46605)
(36.2514 -0.00298358 3.75143)
(35.8255 0.00119402 4.1397)
(35.2102 -0.00846951 4.46823)
(34.3904 -0.0319998 4.88703)
(33.5662 -0.0411795 5.43862)
(32.4821 -0.0199097 5.94275)
(31.2591 0.0222942 6.34219)
(30.1379 0.0440833 6.61157)
(28.9011 0.028328 6.65098)
(27.5564 0.0269698 6.38835)
(26.3891 0.0400461 5.99317)
(25.3997 0.0769198 5.75646)
(24.2435 0.402806 5.97246)
(24.6172 1.64314 7.64492)
(22.5392 2.32177 8.20232)
(20.8509 2.06517 6.40094)
(18.3839 2.18107 4.0616)
(15.8612 2.0563 2.49158)
(13.9398 1.93258 1.64242)
(12.1894 1.58071 0.999889)
(10.8732 1.23623 0.48626)
(10.1763 1.16136 0.155338)
(9.90651 1.24143 0.00127658)
(9.8856 1.32274 -0.0838141)
(10.005 1.32897 -0.185247)
(10.3314 1.35648 -0.272977)
(10.8455 1.46005 -0.358138)
(11.388 1.53964 -0.412695)
(11.951 1.55491 -0.462628)
(12.5628 1.52091 -0.569171)
(13.3697 1.49424 -0.759942)
(14.4346 1.50006 -0.939601)
(15.2614 1.32358 -1.42726)
(39.9993 3.0048e-05 0.0666805)
(39.9895 -4.53585e-05 0.200541)
(39.966 -2.22841e-05 0.335442)
(39.9289 -8.26393e-05 0.472756)
(39.8774 -0.000209966 0.613596)
(39.8124 -0.000266804 0.758932)
(39.7343 -0.000249646 0.909631)
(39.6416 -0.000227307 1.06653)
(39.5322 -0.000242935 1.23045)
(39.4051 -0.000294309 1.40209)
(39.2596 -0.000348921 1.58205)
(39.0957 -0.000364467 1.77069)
(38.9125 -0.000310441 1.96815)
(38.7096 -0.000179698 2.17428)
(38.4864 1.02301e-05 2.3886)
(38.2434 0.000227081 2.61018)
(37.9819 0.000417956 2.83753)
(37.7044 0.000563987 3.06918)
(37.4139 0.000497907 3.30305)
(37.1121 0.000179139 3.54395)
(36.7996 -0.000520908 3.80602)
(36.4746 0.000457867 4.12592)
(36.1464 0.00134335 4.52741)
(35.7618 0.0226422 5.05948)
(35.0512 0.0179952 5.69875)
(34.4129 -0.00347504 6.35522)
(33.7355 -0.0136159 6.94613)
(32.9018 -0.00815803 7.62014)
(31.7347 0.0379703 8.16507)
(30.2245 0.0824246 8.29583)
(28.3671 0.0817508 7.67835)
(26.442 0.0576755 6.95288)
(25.0677 0.0445283 6.74165)
(23.6386 0.113039 7.05698)
(24.3386 0.575459 9.97906)
(21.5356 0.503065 10.355)
(18.3587 0.168561 7.79733)
(15.1343 0.148572 5.05689)
(11.4611 -0.429424 2.53436)
(9.401 -1.01025 0.475581)
(8.63139 -1.50763 -1.0891)
(9.06468 -1.84331 -1.96741)
(10.2273 -1.89243 -2.41172)
(11.8402 -1.76904 -2.75752)
(13.6924 -1.64316 -3.15273)
(15.551 -1.59195 -3.54217)
(17.2995 -1.54856 -3.84589)
(18.9146 -1.48428 -4.07633)
(20.3505 -1.42193 -4.27329)
(21.575 -1.37961 -4.43851)
(22.604 -1.33862 -4.58379)
(23.53 -1.27587 -4.70196)
(24.4236 -1.19523 -4.8383)
(25.034 -1.15271 -5.01684)
(39.9994 3.00483e-05 0.0666775)
(39.9896 -4.53585e-05 0.200545)
(39.9661 -2.22813e-05 0.33544)
(39.9287 -8.26347e-05 0.472755)
(39.8773 -0.000209942 0.613601)
(39.8125 -0.000266832 0.758939)
(39.7344 -0.000249409 0.909637)
(39.6416 -0.000228121 1.06654)
(39.5322 -0.000245521 1.23046)
(39.405 -0.000297461 1.40211)
(39.2596 -0.000351681 1.58208)
(39.0957 -0.000369572 1.77074)
(38.9127 -0.000315709 1.96821)
(38.7099 -0.000182073 2.17435)
(38.4869 4.65796e-06 2.38866)
(38.2438 0.000219727 2.61019)
(37.9822 0.000415114 2.83742)
(37.7045 0.000564634 3.06878)
(37.4134 0.000510504 3.30314)
(37.1108 0.000172421 3.545)
(36.7987 -0.000461533 3.81026)
(36.477 0.00015482 4.1235)
(36.1538 0.00261861 4.54045)
(35.8236 0.0172298 5.03344)
(35.3276 0.0153257 5.66089)
(34.5501 -0.0064812 6.30101)
(33.7765 -0.0261044 7.02941)
(32.5271 -0.0121934 7.59095)
(31.2196 0.0329567 7.9117)
(29.9593 0.0698336 8.03272)
(28.5469 0.0794049 7.83922)
(26.9375 0.05045 7.21567)
(25.348 0.0456704 6.73314)
(23.7807 0.0435833 7.0288)
(23.2283 0.492979 8.52629)
(23.9797 1.08152 9.61289)
(24.2626 1.34499 9.00831)
(23.5058 1.46597 7.56407)
(22.1439 1.43827 5.89576)
(20.5179 1.35429 4.27047)
(18.8624 1.21153 2.9787)
(17.4869 1.04476 2.05805)
(16.5676 0.967003 1.38622)
(16.0812 0.99243 0.86627)
(15.8941 1.04734 0.415774)
(15.9682 1.04127 0.0144938)
(16.3374 1.00705 -0.317741)
(16.9347 0.975762 -0.591498)
(17.6186 0.929704 -0.829814)
(18.3167 0.842478 -1.05553)
(19.0262 0.731476 -1.26427)
(19.8263 0.630676 -1.48865)
(20.6766 0.584903 -1.6897)
(21.2649 0.393459 -2.24875)
(39.9994 2.77296e-05 0.0725429)
(39.9905 -4.20522e-05 0.21812)
(39.9691 -2.75301e-05 0.364979)
(39.9352 -8.83828e-05 0.514627)
(39.8882 -0.000210754 0.668334)
(39.8287 -0.000264602 0.827201)
(39.7571 -0.000246708 0.992224)
(39.6717 -0.000223631 1.16437)
(39.5705 -0.000236468 1.34458)
(39.4523 -0.00028161 1.53367)
(39.3163 -0.000330025 1.73225)
(39.1619 -0.000340275 1.94066)
(38.9884 -0.000285032 2.15885)
(38.7944 -0.000151741 2.38627)
(38.5792 3.49088e-05 2.62176)