/*--------------------------------*- C++ -*----------------------------------*\
| =========                 |                                                 |
| \\      /  F ield         | OpenFOAM: The Open Source CFD Toolbox           |
|  \\    /   O peration     | Version:  4.1                                   |
|   \\  /    A nd           | Web:      www.OpenFOAM.org                      |
|    \\/     M anipulation  |                                                 |
\*---------------------------------------------------------------------------*/
FoamFile
{
    version     2.0;
    format      ascii;
    class       volScalarField;
    location    "18";
    object      omega;
}
// * * * * * * * * * * * * * * * * * * * * * * * * * * * * * * * * * * * * * //

dimensions      [0 0 -1 0 0 0 0];

internalField   nonuniform List<scalar> 
4432
(
0.0111252
0.0114041
0.011706
0.011966
0.0122915
0.0125997
0.0129091
0.0132378
0.0135036
0.0137736
0.0140705
0.014295
0.0146044
0.0147981
0.0149659
0.0146432
0.014788
0.0141796
0.0145854
0.0157475
0.0180174
0.021229
0.0278048
0.0332679
0.0372152
0.0402699
0.0425534
0.0438843
0.0451565
0.0460611
0.0465966
0.0468691
0.0472531
0.0473661
0.0475721
0.0477874
0.0483556
0.0494635
0.0488145
0.0464619
0.0416244
0.0371456
0.0348096
0.0293279
0.0244638
0.0152648
0.0149738
0.0160286
0.0158564
0.0151708
0.0109447
0.00958362
0.0108917
0.0113631
0.0111332
0.0113969
0.0117339
0.0119978
0.0123511
0.0126638
0.0129859
0.0133141
0.0135682
0.0138758
0.0140738
0.0143937
0.0145801
0.0149833
0.0149559
0.0145587
0.0146889
0.0144893
0.0145502
0.0180081
0.0207429
0.0237211
0.0304668
0.034113
0.0365589
0.0381594
0.0405843
0.0425729
0.0434305
0.0435761
0.0428657
0.0410843
0.0387589
0.0367031
0.036198
0.0363624
0.0364487
0.037029
0.0367016
0.0362428
0.0349211
0.0317465
0.0301711
0.0259149
0.0211427
0.0179919
0.0150359
0.0144675
0.0148995
0.0141646
0.00994697
0.00553408
0.00570651
0.00903505
21.6659
3.24785
1.0436
0.545875
0.389264
0.307167
0.250744
0.210764
0.181478
0.160831
0.144253
0.1314
0.118963
0.108769
0.0984426
0.0898452
0.0813249
0.0733143
0.0681742
0.0632861
0.0616387
0.0606849
0.0597485
0.0601287
0.0592984
0.058853
0.0623562
0.0755831
0.0646448
0.0750802
0.0700572
0.0717434
0.0838336
0.0828037
0.0988017
0.124299
0.113003
0.135704
0.185625
0.284535
0.241608
0.249669
0.462789
0.671146
0.650209
0.496341
0.277758
0.323629
0.297115
0.397855
0.37659
0.741743
0.785499
1.09155
21.6654
3.2469
1.042
0.545334
0.389919
0.307535
0.251557
0.211003
0.182354
0.160267
0.143529
0.128967
0.116881
0.105577
0.0963016
0.0872469
0.0796412
0.0735301
0.0686353
0.0659392
0.0625899
0.0619066
0.0606197
0.0622808
0.0586578
0.0585355
0.0611462
0.0637576
0.0603914
0.0611609
0.0647618
0.0761257
0.0677287
0.0753862
0.0694108
0.0912942
0.0808726
0.0855337
0.0976009
0.159778
0.150146
0.166071
0.194878
0.214155
0.19538
0.190413
0.251786
0.381431
0.281485
0.351994
0.316831
0.816674
1.03801
1.32791
21.6629
3.24176
1.03945
0.547176
0.390982
0.307557
0.250928
0.209908
0.18043
0.157602
0.141268
0.12783
0.117802
0.108936
0.101029
0.0940025
0.0865443
0.0801942
0.0744439
0.0701745
0.0672132
0.0653492
0.063605
0.0629712
0.0626674
0.063304
0.0640878
0.0650873
0.0671295
0.0810707
0.0890489
0.115853
0.149483
0.171554
0.209216
0.240318
0.320913
0.288404
0.344003
0.343654
0.364638
0.466607
0.489944
0.473733
0.467901
0.483825
0.455182
0.323232
0.339288
0.401862
0.423118
0.522603
0.758724
0.905914
21.6622
3.24256
1.03903
0.546369
0.390572
0.307622
0.250975
0.21057
0.18159
0.159796
0.1431
0.129685
0.118856
0.108702
0.10126
0.0924848
0.0856806
0.0788184
0.0729732
0.0689173
0.0657399
0.0645681
0.0615565
0.0619771
0.0613561
0.0618082
0.062757
0.0633468
0.0638371
0.066101
0.078242
0.0718788
0.072546
0.0807455
0.104378
0.122544
0.206178
0.163183
0.175036
0.201091
0.277276
0.260402
0.271845
0.300798
0.326744
0.391482
0.322759
0.360742
0.412983
0.469137
0.420838
0.336813
1.06279
1.29112
21.6633
3.24318
1.03764
0.552031
0.392442
0.309262
0.253588
0.212006
0.181697
0.158522
0.14177
0.127836
0.117941
0.108397
0.100991
0.0935579
0.0862555
0.079957
0.0741077
0.0702014
0.0684959
0.0646597
0.0656877
0.0734011
0.0757277
0.0859548
0.0917021
0.108493
0.132736
0.145889
0.197345
0.157314
0.1686
0.202909
0.270983
0.337196
0.316904
0.348724
0.3575
0.423607
0.433085
0.468463
0.451525
0.456041
0.447087
0.513495
0.413967
0.390171
0.35481
0.342432
0.437936
0.499058
0.628407
0.71896
21.6633
3.24722
1.03405
0.540438
0.386913
0.306063
0.25055
0.214613
0.189572
0.170322
0.153425
0.139626
0.126604
0.115954
0.10607
0.0967847
0.0891002
0.0806285
0.0751888
0.0695821
0.0678943
0.0653674
0.0654311
0.0666166
0.0679815
0.0699318
0.0714454
0.0721643
0.0751091
0.0788436
0.086294
0.0909458
0.0963955
0.114331
0.154769
0.205633
0.257859
0.304453
0.329494
0.37489
0.377135
0.362966
0.387503
0.401531
0.381361
0.382669
0.399563
0.492562
0.481718
0.377293
0.507797
0.347305
0.500341
0.931782
21.6638
3.25425
1.02006
0.552297
0.384613
0.31582
0.27307
0.230988
0.197361
0.171338
0.152237
0.136546
0.124812
0.113335
0.104849
0.0955588
0.0879445
0.0797544
0.0747635
0.0704801
0.0665397
0.0669115
0.0744107
0.0828125
0.0931374
0.110268
0.122584
0.153478
0.164825
0.196814
0.174863
0.192448
0.24034
0.351064
0.284904
0.323081
0.401014
0.417135
0.401836
0.407512
0.397164
0.417902
0.44047
0.470749
0.305479
0.456565
0.347195
0.368454
0.370154
0.386729
0.52435
0.566207
0.620518
0.673972
21.6634
3.24049
1.03752
0.546545
0.391981
0.308341
0.25094
0.211395
0.183009
0.160736
0.143468
0.129367
0.118455
0.108676
0.100614
0.092477
0.0853923
0.0805232
0.0750097
0.0681237
0.0697465
0.0725259
0.0704575
0.0729161
0.0768074
0.0799204
0.0868872
0.0928891
0.101403
0.108482
0.118167
0.140936
0.176151
0.218737
0.260861
0.295469
0.336184
0.368451
0.410626
0.383389
0.390231
0.42167
0.383533
0.372455
0.376992
0.361482
0.405158
0.476484
0.349781
0.247498
0.371246
0.478506
0.647596
0.746883
21.6638
3.24592
1.03885
0.550432
0.391093
0.307514
0.251541
0.21329
0.185625
0.164841
0.147867
0.134406
0.122285
0.111944
0.102433
0.0940009
0.0861477
0.0784839
0.0737119
0.06857
0.0713755
0.0739721
0.0796407
0.0864159
0.112607
0.125677
0.14965
0.169206
0.190003
0.200977
0.251097
0.344474
0.281234
0.330739
0.380551
0.376717
0.387031
0.417643
0.407207
0.423745
0.433161
0.413913
0.412947
0.336071
0.28486
0.371856
0.360834
0.285301
0.272788
0.35438
0.484571
0.655075
0.661987
0.604114
21.6637
3.24292
1.03753
0.551208
0.396034
0.308749
0.250846
0.209191
0.179135
0.15639
0.139166
0.125716
0.115141
0.10617
0.0986209
0.0913973
0.0841188
0.0791279
0.0733662
0.0674742
0.0698247
0.0762524
0.0839917
0.0895391
0.0987002
0.103171
0.107945
0.118293
0.126987
0.141602
0.175749
0.216385
0.265392
0.284583
0.348186
0.305445
0.319777
0.338148
0.386438
0.395801
0.381857
0.365168
0.368429
0.31436
0.310894
0.308248
0.356052
0.376821
0.283903
0.2768
0.34139
0.274805
0.317862
0.513759
21.6644
3.24482
1.03737
0.550955
0.392622
0.308612
0.25021
0.209206
0.180655
0.160004
0.143964
0.131187
0.120146
0.110529
0.101315
0.0937812
0.0852634
0.0796017
0.0725695
0.0708188
0.0813349
0.0951582
0.115114
0.126546
0.158552
0.164502
0.195611
0.21039
0.262835
0.285559
0.338319
0.334128
0.389987
0.393106
0.399965
0.406952
0.425382
0.441121
0.420965
0.409091
0.338196
0.293699
0.252797
0.206086
0.197544
0.279158
0.318803
0.284042
0.22527
0.202698
0.157642
0.263368
0.364205
0.445206
21.6641
3.24234
1.0399
0.549572
0.394945
0.309448
0.250835
0.209073
0.179477
0.157585
0.140843
0.127576
0.116523
0.107133
0.0990347
0.0913755
0.0841123
0.078303
0.0727008
0.0671609
0.0711693
0.0838291
0.0937377
0.104039
0.116776
0.122229
0.136064
0.158586
0.186626
0.216659
0.246965
0.270014
0.318554
0.286938
0.326675
0.350492
0.386743
0.358317
0.359237
0.355467
0.36979
0.367888
0.360373
0.319946
0.286248
0.30368
0.34476
0.33224
0.306546
0.279386
0.347672
0.421187
0.411337
0.366982
21.6655
3.24875
1.03397
0.540465
0.388683
0.303804
0.248753
0.212137
0.186327
0.165989
0.149194
0.134079
0.122277
0.11067
0.101979
0.09254
0.085396
0.0780322
0.0704407
0.0739867
0.0887731
0.118504
0.135331
0.1483
0.193195
0.16904
0.186491
0.223113
0.27547
0.289168
0.360454
0.37268
0.381325
0.379744
0.382868
0.38479
0.39077
0.393384
0.368161
0.320893
0.289682
0.281106
0.279637
0.256378
0.218224
0.275277
0.296581
0.290893
0.225226
0.217528
0.194536
0.230509
0.361286
0.594918
21.6655
3.2483
1.0338
0.538441
0.387484
0.303933
0.247304
0.208219
0.180418
0.15956
0.142905
0.12933
0.117842
0.108177
0.0993123
0.0920137
0.0840163
0.0777919
0.0704461
0.0691824
0.0763448
0.0918839
0.103276
0.117209
0.128024
0.14489
0.178713
0.209552
0.231163
0.245907
0.260603
0.284469
0.309323
0.32636
0.334054
0.351535
0.329148
0.349458
0.329938
0.323244
0.321714
0.315633
0.324732
0.336403
0.295175
0.328168
0.335544
0.325353
0.305089
0.272937
0.313028
0.315626
0.429965
0.461457
21.6655
3.24624
1.0432
0.545461
0.391956
0.306032
0.249855
0.212193
0.183744
0.161255
0.143133
0.128618
0.117027
0.106933
0.098555
0.0903734
0.0843281
0.0764999
0.0705299
0.0850626
0.0986992
0.135422
0.138415
0.167487
0.174237
0.181353
0.232426
0.248943
0.280941
0.318444
0.349416
0.351528
0.355185
0.350447
0.356139
0.361318
0.360759
0.355902
0.328098
0.295048
0.297347
0.29636
0.284603
0.274821
0.273057
0.246904
0.280013
0.272003
0.237938
0.200354
0.182926
0.317592
0.758143
0.690386
21.6664
3.23893
1.0366
0.542178
0.390019
0.306407
0.249059
0.207341
0.176561
0.153874
0.136438
0.123094
0.112359
0.103471
0.0957727
0.0885587
0.0826282
0.076568
0.0692011
0.07113
0.0838222
0.0995553
0.109956
0.125599
0.151375
0.185018
0.213334
0.228131
0.245757
0.217098
0.230617
0.266363
0.289134
0.297932
0.307991
0.285768
0.295383
0.278487
0.279541
0.305533
0.293445
0.304794
0.304589
0.309429
0.292499
0.286785
0.306139
0.314607
0.298002
0.28825
0.285825
0.270998
0.433401
0.533925
21.6671
3.24205
1.03445
0.54799
0.394202
0.308093
0.248469
0.206518
0.175997
0.153852
0.136963
0.124097
0.113634
0.10461
0.0972972
0.0893009
0.0843485
0.0748984
0.0722348
0.0835692
0.108476
0.129193
0.132108
0.17005
0.21423
0.215378
0.256321
0.268787
0.291029
0.301006
0.318698
0.319867
0.322774
0.323491
0.330483
0.325921
0.294504
0.318132
0.27669
0.257731
0.260227
0.272156
0.257228
0.238545
0.211207
0.196261
0.251139
0.204768
0.231911
0.182483
0.177843
0.185933
0.397868
0.608342
21.6666
3.24213
1.0372
0.544041
0.387129
0.304755
0.247488
0.206311
0.175839
0.153581
0.13658
0.123338
0.112384
0.103096
0.0953926
0.0879929
0.0824023
0.0762307
0.0687958
0.0748679
0.0852324
0.102883
0.114623
0.139262
0.181977
0.193131
0.22488
0.205048
0.224513
0.244309
0.247443
0.256849
0.264094
0.275242
0.242714
0.243156
0.247852
0.248806
0.249305
0.251309
0.253874
0.281252
0.278352
0.282242
0.282477
0.265945
0.28853
0.293965
0.286509
0.288674
0.258191
0.418784
0.534503
0.588074
21.6669
3.25309
1.03465
0.539291
0.385174
0.301077
0.243784
0.205635
0.178769
0.15874
0.142307
0.128945
0.117462
0.107181
0.0992953
0.0893839
0.0849543
0.0749322
0.0737116
0.0846406
0.111982
0.157355
0.157153
0.21067
0.182052
0.209695
0.257648
0.269744
0.273292
0.27781
0.287833
0.293873
0.302102
0.306344
0.309892
0.290034
0.302976
0.270253
0.23219
0.247049
0.240795
0.243092
0.234626
0.215413
0.170138
0.16399
0.191288
0.179296
0.159292
0.146833
0.149706
0.276086
0.411474
0.538404
21.6671
3.24562
1.03476
0.548185
0.390124
0.307007
0.247945
0.206134
0.175866
0.153901
0.137268
0.123997
0.113259
0.103416
0.0958071
0.0877612
0.0824141
0.0766608
0.0680596
0.0746928
0.083969
0.107456
0.129414
0.165497
0.206905
0.207668
0.199607
0.205537
0.218237
0.226755
0.228891
0.234214
0.234658
0.247698
0.236977
0.21801
0.222411
0.216356
0.249155
0.226696
0.229407
0.2338
0.239425
0.252263
0.245261
0.229951
0.235076
0.263086
0.238905
0.245332
0.265647
0.659851
0.83941
0.832566
21.6678
3.25296
1.03332
0.545427
0.39277
0.305168
0.246483
0.207966
0.181334
0.161151
0.144449
0.130201
0.11797
0.107547
0.098827
0.089642
0.0854069
0.074556
0.0747185
0.0882292
0.14002
0.170138
0.156113
0.199095
0.228942
0.232115
0.247877
0.244314
0.25711
0.262842
0.270646
0.275383
0.288653
0.295626
0.289682
0.290762
0.263322
0.229921
0.222141
0.221958
0.203702
0.199003
0.19356
0.186593
0.162909
0.147851
0.13618
0.140308
0.121594
0.137169
0.104045
0.238638
0.394153
0.584625
21.6683
3.2442
1.03824
0.541318
0.38657
0.304843
0.246663
0.204907
0.174527
0.152131
0.1354
0.121985
0.111854
0.102011
0.0951452
0.086952
0.0815917
0.0764177
0.0682131
0.0709916
0.0936771
0.105192
0.133756
0.177858
0.228086
0.201838
0.208511
0.198071
0.189338
0.186309
0.182618
0.191476
0.221482
0.192591
0.195293
0.201498
0.202324
0.193336
0.194092
0.192655
0.188665
0.191191
0.203086
0.207983
0.205784
0.20046
0.205698
0.193218
0.171769
0.195011
0.19085
0.618587
0.933163
0.856892
21.6693
3.25231
1.03189
0.539774
0.389328
0.304355
0.247115
0.208768
0.181807
0.160899
0.143659
0.12926
0.117305
0.10632
0.0982637
0.0893049
0.0841752
0.0737991
0.0752955
0.0800123
0.152873
0.143689
0.2247
0.219342
0.224451
0.228371
0.232508
0.232023
0.241748
0.245438
0.251985
0.265276
0.275758
0.275922
0.278368
0.264527
0.223595
0.201647
0.200228
0.186921
0.16958
0.164792
0.1622
0.149971
0.121157
0.124564
0.11773
0.120155
0.106726
0.123194
0.110928
0.13874
0.150158
0.22698
21.6691
3.24163
1.04218
0.546008
0.388744
0.304053
0.246332
0.204571
0.174036
0.151229
0.134066
0.120665
0.110503
0.10176
0.0950334
0.0874457
0.0819846
0.0766386
0.0691979
0.0747274
0.0981818
0.10596
0.142267
0.20845
0.260568
0.195201
0.163939
0.179359
0.162298
0.156685
0.158046
0.184028
0.181749
0.185034
0.217887
0.193225
0.193048
0.187688
0.192404
0.199705
0.181408
0.174444
0.184062
0.172922
0.160652
0.163181
0.148846
0.187682
0.182557
0.173974
0.119316
0.250107
0.357672
0.557176
21.6702
3.24283
1.0382
0.54275
0.385055
0.302194
0.245573
0.203982
0.17358
0.150762
0.133809
0.120109
0.110235
0.100858
0.0944767
0.0878457
0.0794726
0.0733497
0.0713777
0.0922459
0.158056
0.18274
0.222349
0.223714
0.214739
0.199771
0.197995
0.215519
0.219154
0.229156
0.240609
0.25422
0.259093
0.256244
0.254905
0.21667
0.186409
0.196921
0.19404
0.179362
0.175266
0.159972
0.145471
0.109652
0.101009
0.101626
0.0972386
0.108949
0.107
0.106384
0.112044
0.123904
0.144338
0.192273
21.67
3.24662
1.0378
0.539727
0.385547
0.302401
0.245632
0.204174
0.174089
0.151855
0.135004
0.121808
0.111046
0.102534
0.0948053
0.0887519
0.0813872
0.0783912
0.0679489
0.0713842
0.0943424
0.121862
0.152205
0.270961
0.308908
0.281711
0.157694
0.160639
0.172104
0.168177
0.177909
0.194623
0.207509
0.217729
0.220077
0.184503
0.180625
0.188409
0.1945
0.195206
0.21272
0.180369
0.180437
0.155549
0.136553
0.134819
0.137439
0.130877
0.109391
0.13097
0.1262
0.144532
0.151453
0.224242
21.6712
3.24315
1.03377
0.547534
0.388579
0.302986
0.244701
0.202809
0.17234
0.149541
0.132685
0.119287
0.109013
0.100472
0.0932408
0.0871351
0.0814119
0.0760694
0.0717137
0.100777
0.166584
0.202477
0.213095
0.21023
0.229015
0.180906
0.191211
0.183462
0.20195
0.21259
0.22542
0.239747
0.241238
0.233562
0.221529
0.161343
0.173009
0.21285
0.183226
0.198435
0.14864
0.15081
0.110205
0.0976932
0.0902009
0.088335
0.085284
0.0910412
0.099683
0.116674
0.130791
0.164521
0.193056
0.268858
21.6704
3.24587
1.04341
0.545691
0.387634
0.302997
0.245566
0.203628
0.17326
0.150855
0.134322
0.12154
0.110687
0.102544
0.094924
0.0889905
0.0819086
0.0781979
0.0698688
0.0708363
0.0998655
0.134507
0.151653
0.418195
0.424018
0.362066
0.261046
0.178912
0.164155
0.172864
0.179725
0.193091
0.192051
0.190786
0.183031
0.16911
0.174417
0.182582
0.202402
0.176693
0.179646
0.175864
0.154451
0.145569
0.127871
0.120979
0.107026
0.0969459
0.104867
0.112733
0.138902
0.191552
0.205564
0.323774
21.6724
3.23938
1.04087
0.543539
0.38555
0.302062
0.244754
0.203129
0.172497
0.149468
0.131926
0.118526
0.107248
0.0996362
0.0905459
0.0883794
0.0755902
0.0718814
0.0682969
0.0756657
0.17663
0.203917
0.212547
0.208686
0.225221
0.194797
0.181578
0.191047
0.20814
0.221784
0.230618
0.228263
0.211049
0.164494
0.165365
0.218962
0.194062
0.18107
0.1569
0.150208
0.121918
0.0880192
0.0823419
0.0759185
0.073797
0.0737402
0.0900144
0.103882
0.125745
0.167706
0.21838
0.262208
0.364006
21.672
3.24472
1.0343
0.541414
0.383878
0.301317
0.244211
0.202839
0.172967
0.151035
0.134565
0.12203
0.111724
0.103595
0.0958321
0.0899545
0.0824404
0.0789444
0.0701231
0.068189
0.0909311
0.118553
0.15599
0.519592
0.313682
0.261071
0.19117
0.171516
0.17471
0.180913
0.19134
0.190109
0.190014
0.181032
0.163502
0.169718
0.182511
0.178224
0.170279
0.156429
0.105228
0.0941527
0.101498
0.091495
0.0884609
0.0786558
0.0860601
0.0994683
0.127258
0.226054
0.313503
0.437471
0.465363
21.6728
3.24491
1.03611
0.53851
0.38365
0.30101
0.244095
0.202577
0.171958
0.148843
0.131228
0.117848
0.107176
0.0991371
0.092111
0.0867086
0.0804437
0.0776217
0.0698514
0.0695888
0.110873
0.195792
0.228978
0.288025
0.390626
0.211096
0.173146
0.170313
0.17117
0.195326
0.207088
0.206428
0.19819
0.184969
0.182555
0.220481
0.213913
0.202564
0.177456
0.140595
0.145567
0.090024
0.0788131
0.0713987
0.0663798
0.0665347
0.0669605
0.0946695
0.109065
0.156077
0.24547
0.315563
0.446295
0.514594
21.6722
3.24736
1.03665
0.551317
0.388674
0.303369
0.247319
0.205875
0.175395
0.15271
0.13549
0.122796
0.112494
0.104195
0.0967881
0.0901783
0.0841661
0.0780537
0.0744123
0.0673984
0.0742219
0.108346
0.115574
0.151731
0.603721
0.335383
0.210707
0.182981
0.168195
0.164756
0.173033
0.174788
0.174028
0.173254
0.162949
0.172004
0.175862
0.179966
0.160017
0.130522
0.106188
0.0955585
0.0876927
0.0778699
0.0703947
0.0685902
0.0704119
0.0845175
0.106786
0.187087
0.481068
0.638578
0.551962
0.59132
21.6734
3.24405
1.03857
0.537067
0.381479
0.299449
0.243408
0.202428
0.171911
0.149038
0.13142
0.117771
0.107211
0.099175
0.0925703
0.0870103
0.0817549
0.0772688
0.0736263
0.069048
0.0790616
0.122681
0.162277
0.2121
0.245992
0.184109
0.174805
0.17008
0.171193
0.184751
0.182431
0.187983
0.179742
0.191849
0.224202
0.241264
0.248651
0.237741
0.180007
0.133271
0.0898652
0.0762796
0.06571
0.0592027
0.0580931
0.0586592
0.0691322
0.0990431
0.103508
0.207765
0.316783
0.439797
0.541502
0.508181
21.6719
3.26607
1.01717
0.554075
0.375819
0.307611
0.267986
0.232509
0.197841
0.169436
0.147476
0.130609
0.117352
0.107032
0.0984706
0.0913818
0.0853869
0.0789413
0.0759583
0.0674655
0.0680508
0.0793125
0.0901019
0.115093
0.130054
0.157275
0.186991
0.182071
0.174137
0.170395
0.178157
0.177194
0.172295
0.167523
0.162098
0.168991
0.172341
0.152132
0.123039
0.102143
0.0921565
0.0814111
0.0737355
0.0623317
0.0616321
0.0591229
0.0712936
0.0814987
0.119638
0.408928
0.625534
0.602231
0.696713
0.594303
21.6733
3.24724
1.04358
0.544249
0.387917
0.302538
0.244202
0.202267
0.171947
0.149301
0.132327
0.119044
0.108573
0.100327
0.0934236
0.0879904
0.0829819
0.0780654
0.075486
0.0677987
0.0698752
0.0801175
0.10994
0.105903
0.144654
0.146247
0.157292
0.158921
0.158443
0.191819
0.198405
0.199045
0.182475
0.181534
0.22869
0.275178
0.246782
0.185678
0.125368
0.0873659
0.0703813
0.0595793
0.0526682
0.0526011
0.0530163
0.0564334
0.0673597
0.0992764
0.116223
0.235718
0.286054
0.428291
0.566613
0.517113
21.6728
3.25406
1.03876
0.545108
0.386273
0.301147
0.244556
0.206237
0.179011
0.158036
0.141123
0.127192
0.115542
0.106265
0.0980203
0.0916148
0.0852472
0.0805846
0.0752493
0.0716286
0.0661214
0.0709432
0.0786802
0.0829524
0.0849371
0.0931854
0.103704
0.115597
0.134927
0.145735
0.158141
0.15712
0.154999
0.149223
0.146464
0.145552
0.133046
0.111579
0.0943589
0.0814142
0.072389
0.0627712
0.0563265
0.0544204
0.0567439
0.0539169
0.0735659
0.0770703
0.145434
0.453773
0.480003
0.485341
0.504425
0.565195
21.6741
3.24543
1.0395
0.542124
0.384424
0.300577
0.243368
0.201825
0.17139
0.148562
0.131212
0.118078
0.107602
0.099602
0.0927986
0.0876988
0.0828581
0.0792825
0.0754061
0.0724018
0.0676413
0.0738137
0.0770188
0.0894322
0.0865193
0.100962
0.0990237
0.0975993
0.113704
0.12625
0.130512
0.167103
0.155695
0.144087
0.140167
0.126386
0.10118
0.0776381
0.0627706
0.0564702
0.051119
0.0490323
0.0461517
0.0475826
0.0498799
0.0529756
0.0712581
0.0941103
0.0967145
0.235313
0.209206
0.351812
0.572932
0.3616
21.6744
3.24675
1.03794
0.53688
0.383744
0.301688
0.244233
0.202528
0.171824
0.148768
0.131271
0.117953
0.107707
0.0999286
0.093503
0.0885335
0.0837955
0.0796499
0.0760527
0.0726938
0.0692534
0.0671448
0.0672104
0.0716449
0.0729863
0.0745985
0.074353
0.0764139
0.0824444
0.0895723
0.102007
0.103383
0.116715
0.11346
0.107513
0.0997794
0.0889715
0.078802
0.0689672
0.0610014
0.054663
0.0507144
0.0474409
0.0497536
0.0530444
0.0531143
0.0709423
0.082993
0.100078
0.349132
0.461122
0.196357
0.481385
0.264594
21.6742
3.24883
1.03907
0.536781
0.38162
0.299925
0.24354
0.202306
0.172202
0.14971
0.132723
0.119547
0.109014
0.100713
0.0937257
0.0882501
0.0833106
0.0794686
0.0757413
0.072699
0.0697946
0.0684272
0.070288
0.0727747
0.0740849
0.0755824
0.0764404
0.0773533
0.0769488
0.0750178
0.0879296
0.0876431
0.0825371
0.0768307
0.0708525
0.0643541
0.0586053
0.0541992
0.0509228
0.0486724
0.0462585
0.0465605
0.0452548
0.0470684
0.048298
0.0555605
0.0659345
0.0891036
0.109207
0.194939
0.154643
0.620551
0.725939
0.752787
21.6747
3.24912
1.03792
0.536499
0.381489
0.300223
0.24368
0.20243
0.172273
0.14985
0.133005
0.11981
0.109309
0.100889
0.093707
0.0881859
0.0833234
0.079634
0.0759021
0.072919
0.0700061
0.067662
0.0665518
0.066526
0.0651417
0.0650743
0.0646639
0.0649856
0.0659943
0.0685127
0.070682
0.071779
0.0746108
0.073844
0.0714039
0.0672686
0.0618756
0.057071
0.0525962
0.0497742
0.0476724
0.0469952
0.0468887
0.0484323
0.054112
0.0529599
0.0641223
0.0773199
0.108817
0.292177
0.231097
0.538176
0.609468
0.659223
21.6748
3.24522
1.04124
0.53908
0.382017
0.299611
0.243169
0.201962
0.171402
0.148547
0.131313
0.118127
0.107832
0.0997332
0.0931121
0.0878295
0.0831772
0.079268
0.0756907
0.0725958
0.0698827
0.0678735
0.0666888
0.0663772
0.065746
0.0645902
0.0633399
0.0620604
0.0608773
0.0601452
0.060132
0.0592905
0.0578926
0.0555912
0.0535572
0.0512383
0.0498306
0.0481528
0.0471689
0.0459191
0.0451194
0.0461684
0.0449007
0.045591
0.0499455
0.0541835
0.0633774
0.0808694
0.0865283
0.160598
0.241485
0.248996
0.600188
0.614078
21.6752
3.24584
1.03807
0.538488
0.382464
0.299867
0.243307
0.202302
0.172249
0.149944
0.133258
0.120124
0.109887
0.101303
0.0943812
0.0885591
0.083637
0.079667
0.0759008
0.0729215
0.0700868
0.0676601
0.0659661
0.0650408
0.0635189
0.0621038
0.0610321
0.0602649
0.0599565
0.0600172
0.0600502
0.0594653
0.0586449
0.0572001
0.0553994
0.0534138
0.0513654
0.0495808
0.0480341
0.0471775
0.0466171
0.0467043
0.0471067
0.0468121
0.0487891
0.052994
0.0708248
0.0787627
0.0910431
0.237901
0.234095
0.338136
0.542772
0.460498
21.6752
3.24479
1.03814
0.538838
0.383358
0.300449
0.24384
0.202519
0.171764
0.148571
0.130855
0.117195
0.106638
0.0983677
0.0918311
0.0865427
0.0821693
0.0783232
0.0750291
0.0718574
0.0692431
0.0669003
0.0648652
0.0635686
0.0623877
0.061017
0.0596161
0.0580636
0.0565893
0.0552636
0.0542155
0.0530659
0.0520677
0.0507756
0.0498726
0.0486169
0.047947
0.0468672
0.0463
0.0452605
0.0448171
0.0450561
0.0435003
0.0436183
0.0450068
0.0493152
0.052986
0.0676346
0.0682034
0.141262
0.20358
0.324955
0.414473
0.465533
21.6751
3.24696
1.04176
0.537977
0.382712
0.30021
0.243604
0.202272
0.171658
0.148657
0.131433
0.118111
0.107906
0.0996684
0.0931787
0.0878225
0.0830414
0.0791888
0.0752447
0.0724472
0.0695331
0.0670463
0.0649123
0.0632246
0.0616193
0.0599269
0.058196
0.0567535
0.0555909
0.0548636
0.0542379
0.0536771
0.0528677
0.0520715
0.0509816
0.0499145
0.0487126
0.0477162
0.0467953
0.0461988
0.045639
0.0455402
0.0454524
0.0465914
0.0474674
0.0535631
0.0638588
0.0701513
0.0891699
0.196326
0.241336
0.310694
0.530459
0.402649
21.6753
3.24735
1.03804
0.5356
0.381344
0.299712
0.243266
0.202039
0.171547
0.148532
0.131167
0.117638
0.107365
0.098923
0.092604
0.0870613
0.0828185
0.0788985
0.0755756
0.0724642
0.0692989
0.066717
0.0643607
0.0621035
0.0604755
0.0587876
0.0572595
0.0556594
0.0542366
0.0527644
0.0515331
0.0503198
0.0492574
0.0481379
0.0472525
0.0462719
0.0455397
0.0448025
0.0441714
0.0433515
0.042883
0.0423243
0.041484
0.0424368
0.044909
0.0498581
0.0523122
0.0626229
0.0681023
0.130991
0.21733
0.396389
0.608156
0.825308
21.6757
3.24525
1.04051
0.538138
0.382837
0.30061
0.243779
0.202325
0.171537
0.148379
0.130895
0.117546
0.107325
0.0992036
0.0928564
0.0876304
0.0830493
0.0791918
0.0757326
0.0722597
0.0694965
0.0667955
0.0641356
0.0621004
0.0600523
0.0582353
0.0565933
0.054903
0.053398
0.052093
0.0508907
0.0500149
0.0489412
0.0481753
0.0472186
0.0464133
0.0455802
0.0446955
0.0440426
0.0432824
0.0425487
0.0421246
0.0417255
0.0434675
0.0442061
0.0488004
0.0505577
0.0640557
0.105526
0.159984
0.3596
0.543239
0.648648
0.656781
21.6754
3.24598
1.03897
0.538353
0.381819
0.300287
0.24383
0.202458
0.171694
0.148528
0.131033
0.11753
0.107273
0.0991093
0.0927642
0.0874291
0.0830946
0.0791241
0.0756929
0.0724316
0.0694733
0.0665757
0.0641314
0.0618103
0.0595533
0.0579199
0.0561127
0.054578
0.0529517
0.0516713
0.0502333
0.0492061
0.0480156
0.047114
0.0460519
0.0452888
0.0443418
0.0437996
0.0429654
0.0424282
0.0414314
0.0408193
0.0407349
0.0411165
0.0392396
0.0411357
0.0413261
0.0528273
0.0625347
0.103656
0.240234
0.458813
0.554721
0.784206
21.6757
3.24751
1.03917
0.536399
0.381784
0.300238
0.243833
0.202503
0.171661
0.148374
0.130734
0.117297
0.10702
0.0989778
0.092651
0.0874534
0.0830037
0.0792042
0.075746
0.0724376
0.0694371
0.0666401
0.0641059
0.0614793
0.0594438
0.0574079
0.0556719
0.0540425
0.0524864
0.0511382
0.0497923
0.0487063
0.0475914
0.046667
0.0457472
0.044887
0.0441046
0.0433208
0.0426742
0.0419377
0.0414538
0.0408957
0.0401673
0.0418573
0.0431065
0.0426441
0.0441125
0.050677
0.0715933
0.179474
0.451482
0.679522
0.753074
0.848986
21.6751
3.24772
1.03868
0.537182
0.381289
0.299831
0.243791
0.202693
0.171985
0.148738
0.13113
0.117549
0.107212
0.0990526
0.0926669
0.0873692
0.0830384
0.0790972
0.0756877
0.0724241
0.0694084
0.0665209
0.0638897
0.0613358
0.0591528
0.0571145
0.0552504
0.0535191
0.0519536
0.0504904
0.0492201
0.0479344
0.046842
0.0457675
0.044812
0.0439313
0.0432183
0.0423982
0.0418277
0.0410629
0.0402788
0.0394803
0.0390014
0.0373863
0.0373334
0.0390948
0.0389831
0.0405624
0.0543621
0.0723155
0.126671
0.27684
0.394355
0.415225
21.6756
3.24748
1.03972
0.537081
0.381374
0.299934
0.243676
0.202459
0.171622
0.148405
0.130683
0.117228
0.106767
0.0987221
0.0921966
0.0869791
0.0825134
0.0786804
0.0753358
0.0720923
0.0692305
0.0664012
0.0637135
0.0612191
0.059006
0.0569925
0.0551907
0.0536345
0.05207
0.0507932
0.0494114
0.0483069
0.0471165
0.0461474
0.0451363
0.044233
0.043281
0.0425984
0.0416289
0.0411367
0.0403219
0.0399304
0.0386829
0.0386586
0.0391495
0.0383073
0.0408169
0.0446482
0.053128
0.0857474
0.159374
0.527517
0.528509
0.492088
21.6754
3.24666
1.04013
0.536853
0.381165
0.29968
0.243589
0.202469
0.171914
0.148632
0.130891
0.117023
0.106327
0.0980183
0.0915783
0.0864042
0.0822887
0.078587
0.0753733
0.0721688
0.0693576
0.0664645
0.0639961
0.0614413
0.0591407
0.0569094
0.0549648
0.0530662
0.0514312
0.0498679
0.0485603
0.0472159
0.0461201
0.044918
0.0439837
0.0429112
0.0420743
0.041236
0.0405302
0.0395774
0.0389993
0.0377076
0.0366974
0.0362854
0.03607
0.0364896
0.0389823
0.037246
0.0731218
0.084713
0.163276
0.294552
0.597527
0.902852
21.6755
3.24782
1.03933
0.536913
0.381181
0.299796
0.243678
0.202534
0.171805
0.148734
0.131133
0.117673
0.107253
0.0990952
0.0926287
0.0873291
0.082884
0.0790313
0.0755471
0.0724205
0.0694837
0.0666525
0.0640565
0.0613773
0.0590732
0.0568813
0.0548814
0.0531618
0.0514686
0.0501191
0.0486548
0.0474911
0.0461841
0.0451253
0.0439899
0.0430014
0.0420971
0.0412465
0.0405601
0.0398586
0.0392095
0.0379339
0.0375628
0.0357085
0.036072
0.0360846
0.0409402
0.0477905
0.0598032
0.13269
0.167248
0.714354
1.11895
1.17049
21.6748
3.24811
1.03985
0.537125
0.381486
0.299891
0.243733
0.202666
0.172127
0.149082
0.131509
0.11797
0.107376
0.0990491
0.092372
0.0869055
0.0823842
0.0784155
0.0749239
0.0716883
0.0687377
0.065957
0.063363
0.0608641
0.0585645
0.0563929
0.0543257
0.0525332
0.0507838
0.0493133
0.0478487
0.0466004
0.0453744
0.0442602
0.0432652
0.0422582
0.0414554
0.0404872
0.0398411
0.0390264
0.0381877
0.0371155
0.0361398
0.0354764
0.0361164
0.0366595
0.0410982
0.0432525
0.124923
0.195079
0.240863
0.357525
0.911751
0.95194
21.6752
3.24809
1.0409
0.538079
0.381727
0.300091
0.243804
0.20264
0.172001
0.148998
0.131441
0.117986
0.107484
0.0992334
0.0926552
0.0872549
0.0827626
0.078843
0.0753825
0.0721711
0.0692908
0.0665086
0.0638642
0.061355
0.0589605
0.056747
0.0546583
0.0528221
0.0510673
0.0495606
0.0481236
0.04682
0.0456048
0.0444782
0.0434321
0.0425235
0.0416563
0.0408292
0.0401901
0.0390858
0.0381986
0.0369062
0.0362386
0.0350494
0.0357985
0.0349161
0.0417669
0.0448758
0.0724603
0.114977
0.182869
0.140607
0.959515
0.830605
21.6769
3.2473
1.03592
0.535799
0.381514
0.299516
0.244319
0.205891
0.17786
0.156258
0.138961
0.124964
0.11356
0.104321
0.0967136
0.090395
0.0850204
0.0804061
0.076337
0.0727752
0.0695558
0.0667155
0.0639747
0.0615933
0.059181
0.0570839
0.0551088
0.0533269
0.0517394
0.0501902
0.0488917
0.0475449
0.0464629
0.0450984
0.0439903
0.0425381
0.0415406
0.0403146
0.0394495
0.0386015
0.0376162
0.0375469
0.0377956
0.0382446
0.040884
0.0441945
0.0572727
0.100121
0.19107
0.262425
0.343849
1.07198
1.20682
1.30754
21.6758
3.25044
1.04272
0.541501
0.383985
0.301096
0.24421
0.202754
0.172139
0.149454
0.132444
0.11951
0.109329
0.101221
0.0944768
0.0888706
0.0840137
0.0798768
0.0761435
0.0729024
0.0699023
0.0671504
0.0646068
0.0620776
0.0598305
0.0575543
0.055656
0.0536766
0.0520021
0.0503706
0.0488049
0.0475099
0.0460303
0.0447864
0.0433402
0.0419984
0.0407749
0.0395463
0.0384665
0.0372352
0.0364871
0.0353089
0.037415
0.0394534
0.041519
0.0458027
0.0561725
0.0561218
0.095704
0.142342
0.161626
0.482216
0.718438
1.06009
0.0110741
0.0114656
0.0118007
0.0121953
0.0124945
0.0128071
0.0130596
0.0133138
0.0135709
0.0138148
0.014084
0.0143189
0.0145725
0.0147729
0.0149993
0.0151531
0.0153496
0.0154454
0.0156314
0.0157246
0.0159109
0.0160231
0.0162398
0.0164144
0.0166821
0.0171291
0.0174555