/*--------------------------------*- C++ -*----------------------------------*\
| =========                 |                                                 |
| \\      /  F ield         | OpenFOAM: The Open Source CFD Toolbox           |
|  \\    /   O peration     | Version:  4.1                                   |
|   \\  /    A nd           | Web:      www.OpenFOAM.org                      |
|    \\/     M anipulation  |                                                 |
\*---------------------------------------------------------------------------*/
FoamFile
{
    version     2.0;
    format      ascii;
    class       volScalarField;
    location    "18";
    object      p;
}
// * * * * * * * * * * * * * * * * * * * * * * * * * * * * * * * * * * * * * //

dimensions      [0 2 -2 0 0 0 0];

internalField   nonuniform List<scalar> 
4432
(
104142
104141
104139
104135
104128
104120
104112
104107
104103
104101
104101
104101
104099
104094
104083
104065
104032
103972
103902
103823
103973
104093
103702
103408
103414
103450
103261
102934
102597
102295
102044
101763
101987
102588
103433
103458
102676
102629
102656
102667
102736
102547
102532
102703
103065
103787
103712
103288
103885
106316
108493
100711
74325.8
61154.2
104141
104140
104138
104134
104127
104119
104112
104106
104102
104101
104101
104100
104098
104093
104082
104065
104031
103970
103883
103770
103772
104070
104084
103763
103410
103408
103325
102829
102375
102125
102047
101905
102240
102430
102555
102658
102734
102673
102537
102531
102640
102770
102931
103099
103313
103648
103811
103279
103889
105967
109290
102433
74909
60826.4
104136
104134
104131
104125
104117
104107
104098
104091
104086
104085
104085
104087
104090
104094
104098
104101
104098
104053
103949
103877
103896
103982
103888
103715
103417
103017
102539
102185
101962
101927
102102
102156
102089
102176
102256
102333
102387
102293
102148
102177
102280
102280
102229
102236
102392
102809
102977
102427
102586
104389
107311
100436
72586.4
84275
104136
104133
104130
104124
104116
104106
104097
104090
104086
104084
104085
104087
104090
104093
104097
104102
104100
104048
103940
103861
103891
103980
103906
103680
103326
102901
102513
102160
101919
101954
102072
102131
102182
102345
102489
102388
102283
102137
102071
102127
102294
102391
102407
102550
102783
103141
103252
102834
103449
105282
108400
102345
73330.1
85589.1
104131
104129
104126
104120
104111
104101
104090
104081
104074
104069
104068
104069
104075
104085
104102
104123
104152
104100
103959
103857
103908
103916
103784
103552
103239
102860
102439
102117
101970
102028
102102
102014
102042
102349
102335
102245
102236
102247
102262
102389
102430
102460
102394
102227
101894
101440
101239
100744
100906
101042
99373.6
95604
83935.5
94709.4
104130
104128
104125
104119
104110
104100
104089
104080
104073
104069
104068
104069
104075
104085
104103
104128
104160
104095
103922
103860
103902
103907
103804
103590
103254
102828
102388
102055
101928
102002
102028
101917
101925
102188
102358
102291
102201
102140
102179
102261
102403
102357
102241
102154
102017
101870
101448
101081
101242
101541
100229
97964.2
83619
93544.1
104123
104122
104118
104112
104103
104091
104080
104069
104061
104055
104053
104054
104059
104069
104086
104104
104123
104052
103881
103773
103824
103874
103848
103677
103424
103045
102609
102210
101998
101977
101957
101829
101882
102156
102115
102072
101989
102000
102041
102158
102082
101906
101757
101630
101320
100873
100819
100289
100606
102029
102483
97813.3
86869.5
87030
104123
104121
104117
104111
104102
104090
104079
104069
104061
104055
104053
104053
104059
104070
104088
104110
104123
104046
103856
103780
103820
103872
103845
103709
103433
103035
102580
102199
102019
101979
101931
101801
101768
102053
102140
102135
102070
102042
102116
102188
102143
101941
101848
101620
101276
100845
100366
100047
100026
101639
102892
98630.5
85863.2
85729.9
104114
104112
104109
104102
104092
104080
104067
104056
104046
104040
104036
104035
104038
104044
104052
104055
104044
103984
103805
103700
103736
103857
103881
103810
103659
103319
102969
102588
102291
102149
102110
102071
101984
102092
102213
101991
101839
101844
101811
101694
101797
101156
100991
100902
100943
101169
100957
100194
100150
101420
103013
99627.9
90217.6
96566.4
104114
104111
104108
104101
104091
104079
104066
104055
104046
104039
104036
104035
104038
104044
104053
104058
104045
103966
103810
103713
103766
103877
103889
103817
103652
103328
102945
102547
102289
102144
102094
102046
102007
102050
102020
101937
101903
101917
101920
101892
101656
101240
101207
101024
100747
100483
100153
99857.4
100003
101368
103161
100339
89694
95212.5
104104
104102
104098
104090
104080
104067
104053
104041
104030
104022
104016
104013
104012
104011
104009
103999
103971
103916
103811
103736
103755
103855
103902
103824
103773
103588
103347
103067
102702
102473
102324
102249
102203
102334
102286
101694
101609
101623
101598
101349
100892
100500
100684
100606
100539
101018
100834
100241
100110
100861
101742
98364.8
90376.5
94784.6
104103
104101
104097
104089
104079
104066
104053
104040
104030
104022
104016
104013
104012
104011
104010
104000
103973
103913
103812
103742
103770
103854
103883
103876
103762
103577
103335
103011
102693
102455
102302
102202
102186
102053
101872
101733
101655
101687
101697
101591
101134
100828
100755
100738
100681
100605
100359
100082
100189
101099
101977
98454.9
90418.7
95609.5
104092
104089
104085
104078
104066
104053
104038
104025
104013
104003
103995
103989
103983
103977
103967
103950
103919
103874
103816
103768
103785
103856
103886
103843
103733
103697
103631
103452
103069
102713
102457
102303
102293
102313
101726
102031
101260
101368
101490
101434
101104
100944
101002
100839
100552
100604
100465
100228
100160
100534
100732
97918.4
91877.6
92586.5
104091
104089
104084
104077
104065
104052
104038
104025
104013
104003
103995
103989
103983
103977
103968
103951
103920
103874
103809
103766
103790
103867
103872
103826
103770
103710
103607
103353
103036
102742
102469
102266
102160
101974
101682
101459
101324
101449
101577
101540
101285
101105
101041
100929
100819
100831
100609
100402
100469
100856
100925
97771.4
91670.2
92893.3
104078
104076
104072
104064
104052
104038
104023
104009
103996
103984
103974
103964
103955
103944
103931
103912
103883
103846
103802
103764
103767
103837
103903
103862
103618
103677
103694
103483
103168
102824
102538
102268
102048
101821
101485
101162
101160
101363
101608
101718
101568
101473
101525
101266
100749
100479
100358
100371
100436
100605
100665
98437.1
92983.8
96177
104078
104075
104071
104063
104051
104037
104022
104008
103996
103984
103974
103965
103955
103945
103931
103912
103884
103846
103799
103761
103764
103829
103874
103838
103736
103710
103614
103425
103149
102844
102548
102262
102011
101774
101475
101230
101193
101385
101641
101737
101613
101467
101336
101091
100911
100912
100798
100728
100690
100813
100856
98359.7
92441
95245
104065
104062
104058
104049
104037
104023
104007
103992
103979
103966
103954
103942
103930
103916
103902
103883
103859
103829
103796
103767
103757
103789
103847
103823
103654
103612
103535
103350
103105
102812
102526
102255
102004
101737
101444
101249
101279
101512
101821
102056
102169
102153
102124
101855
101196
100583
100332
100374
100531
100657
100272
97944.7
93143.2
96446.6
104064
104062
104057
104048
104036
104022
104007
103992
103978
103966
103954
103942
103930
103917
103902
103884
103860
103830
103796
103764
103753
103776
103825
103827
103710
103621
103504
103308
103076
102808
102532
102259
101998
101746
101464
101261
101299
101484
101763
101995
102099
102043
101817
101443
101063
100794
100689
100668
100710
100745
100481
98211.7
92767.6
95713.4
104050
104048
104043
104035
104022
104007
103992
103976
103962
103948
103935
103921
103908
103894
103879
103863
103845
103823
103800
103777
103762
103758
103770
103754
103615
103464
103339
103210
103043
102810
102548
102289
102043
101800
101557
101406
101440
101642
101946
102305
102677
102894
102856
102535
101796
100836
100117
99931.2
100043
100028
99505.5
97860.2
94990.2
97328.3
104050
104047
104043
104034
104021
104007
103991
103976
103962
103948
103935
103922
103908
103895
103880
103865
103846
103824
103800
103776
103759
103753
103757
103741
103639
103490
103369
103223
103030
102795
102543
102288
102041
101813
101587
101427
101455
101630
101911
102215
102489
102630
102466
102020
101444
100848
100378
100365
100560
100542
100102
98377.7
94204.6
95765.8
104036
104034
104029
104020
104007
103992
103977
103961
103946
103932
103918
103904
103890
103876
103863
103850
103838
103824
103809
103793
103777
103755
103738
103695
103551
103358
103211
103107
102984
102802
102577
102344
102115
101905
101715
101591
101609
101774
102050
102405
102816
103244
103408
103181
102338
101184
100126
99562.8
99371.7
99140.8
98546.1
97340.7
95254.7
91133.9
104035
104033
104028
104019
104007
103992
103976
103961
103946
103932
103918
103904
103891
103877
103864
103852
103839
103825
103810
103793
103777
103758
103734
103678
103552
103382
103246
103140
102998
102803
102576
102343
102118
101918
101741
101620
101635
101786
102037
102343
102665
102949
102997
102566
101803
100951
100227
99922.8
99968.7
99947
99444.4
98468.5
95387.2
90715.3
104021
104019
104014
104005
103993
103978
103962
103947
103932
103918
103903
103889
103876
103863
103851
103842
103835
103828
103822
103816
103807
103792
103761
103673
103486
103267
103129
103049
102957
102817
102637
102440
102244
102066
101917
101822
101828
101945
102155
102435
102772
103126
103448
103495
102839
101723
100554
99694.2
99152
98673.2
98002.8
97309.7
95950
92089.1
104021
104018
104013
104005
103992
103977
103962
103947
103932
103918
103904
103890
103876
103864
103853
103844
103836
103830
103823
103816
103808
103794
103761
103668
103484
103276
103146
103068
102970
102824
102639
102440
102247
102075
101934
101842
101844
101953
102149
102401
102683
102941
103084
102871
102197
101266
100367
99727.4
99409.2
99203.3
98911.2
99029.2
96985.3
95819.3
104007
104005
104000
103991
103979
103964
103949
103934
103919
103905
103891
103877
103864
103852
103843
103836
103834
103834
103836
103842
103850
103855
103832
103702
103391
103110
103049
103037
102991
102895
102762
102611
102459
102320
102208
102136
102127
102185
102304
102467
102664
102875
103037
103078
102712
101914
100953
100109
99465.8
98885
98152.1
97037.2
95746.9
91216.5
104007
104004
103999
103990
103978
103964
103949
103933
103919
103905
103891
103878
103865
103853
103844
103838
103835
103835
103838
103843
103852
103859
103840
103695
103378
103104
103048
103040
102994
102897
102762
102607
102454
102317
102207
102137
102126
102184
102298
102449
102620
102778
102843
102707
102247
101508
100682
99966.7
99437.6
98988.3
98411.9
97561.8
96289.2
91364.2
103993
103991
103986
103977
103965
103951
103936
103922
103908
103894
103880
103867
103855
103844
103836
103831
103832
103836
103847
103865
103899
103948
104002
103842
103291
102782
102934
103037
103057
103015
102937
102838
102734
102638
102561
102507
102479
102476
102490
102511
102548
102588
102590
102489
102190
101657
100983
100304
99686.4
99037.7
98198.6
96773.4
94950.9
90411
103993
103990
103986
103977
103965
103951
103936
103921
103907
103894
103880
103867
103855
103845
103837
103833
103833
103838
103848
103866
103901
103957
104023
103839
103259
102759
102917
103031
103057
103016
102937
102836
102731
102636
102561
102515
102490
102487
102501
102511
102531
102546
102506
102338
101977
101429
100785
100151
99570.1
98950.9
98131.1
96708.2
94849.9
90284.2
103980
103978
103973
103964
103953
103939
103925
103911
103897
103884
103871
103858
103847
103836
103829
103826
103827
103833
103846
103869
103920
104027
104188
104321
102383
102561
102966
103149
103207
103195
103154
103098
103036
102980
102936
102907
102868
102807
102712
102578
102457
102354
102236
102055
101764
101348
100841
100291
99712.3
99023.9
98082.9
96572.3
94413.4
90320.8
103979
103977
103972
103964
103952
103939
103925
103911
103897
103884
103871
103859
103847
103837
103830
103827
103828
103834
103846
103870
103918
104024
104180
104158
102257
102403
102945
103149
103216
103203
103161
103104
103042
102988
102957
102954
102911
102844
102748
102585
102443
102326
102194
101994
101683
101254
100745
100198
99616.6
98916.6
97955.1
96421.4
94235.5
90181.9
103967
103965
103960
103952
103941
103928
103914
103901
103888
103876
103863
103851
103839
103829
103822
103818
103817
103821
103828
103841
103866
103915
104126
104565
102460
103011
103252
103354
103374
103369
103353
103331
103310
103297
103288
103240
103127
102908
102623
102374
102172
101988
101780
101512
101169
100760
100292
99742.4
99024.1
98011.6
96449.8
94217
90304.7
103967
103965
103960
103952
103940
103928
103914
103901
103888
103876
103863
103851
103840
103830
103823
103819
103819
103822
103828
103841
103861
103903
104084
103645
102336
103008
103282
103390
103404
103393
103372
103347
103327
103324
103387
103318
103159
102957
102607
102350
102142
101954
101743
101472
101126
100715
100242
99678.2
98939.8
97901.6
96325.7
94019.8
90219
103955
103953
103949
103941
103930
103918
103905
103892
103880
103868
103856
103844
103833
103823
103814
103808
103804
103801
103797
103787
103759
103680
103459
103048
102415
102818
103270
103445
103473
103470
103471
103478
103486
103490
103482
103458
103374
103193
102881
102556
102263
102016
101811
101608
101372
101085
100749
100347
99817.3
99053
97935.4
96245.4
94133.3
90150
103955
103953
103948
103940
103930
103917
103905
103892
103880
103868
103856
103845
103833
103823
103815
103809
103805
103802
103797
103786
103754
103671
103432
102941
102060
102848
103306
103485
103513
103506
103503
103505
103508
103504
103487
103483
103405
103155
102792
102484
102219
101982
101775
101570
101335
101053
100717
100307
99764
98992
97881.5
96246.3
93989.4
90177.4
103944
103942
103938
103930
103920
103908
103896
103884
103873
103862
103850
103838
103827
103816
103806
103797
103789
103779
103763
103733
103677
103576
103424
103217
103040
103080
103321
103449
103485
103494
103500
103512
103527
103534
103520
103438
103241
102956
102583
102417
102184
101950
101744
101550
101334
101085
100809
100473
99971.9
99157.9
97906.3
96072.8
94103
90031.3
103944
103942
103937
103930
103920
103908
103896
103884
103873
103862
103850
103839
103827
103816
103807
103798
103790
103780
103763
103732
103675
103572
103414
103200
103016
103076
103327
103462
103506
103518
103525
103533
103542
103535
103496
103361
103009
102589
100978
101530
101972
101901
101714
101507
101287
101047
100773
100425
99908.8
99109.9
97919.8
96196.6
94096.3
90056.8
103934
103932
103928
103920
103911
103900
103889
103877
103867
103856
103845
103833
103821
103809
103798
103787
103774
103758
103735
103697
103640
103560
103463
103351
103243
103234
103331
103420
103464
103483
103500
103527
103567
103619
103640
103518
102868
101534
101111
101579
102051
102043
101856
101647
101404
101166
100960
100729
100291
99453.9
98103
96209.1
94195.8
89908.2
103933
103931
103927
103920
103910
103900
103888
103877
103867
103856
103845
103833
103822
103810
103799
103787
103775
103759
103734
103696
103639
103558
103461
103347
103235
103226
103324
103417
103466
103489
103508
103537
103574
103598
103600
103490
101814
98527
95553.2
97841
99847.3
101834
101860
101628
101373
101134
100915
100642
100175
99365.1
98091.9
96322.4
94441
90085.9
103924
103922
103918
103912
103902
103892
103882
103871
103861
103851
103840
103828
103816
103804
103791
103777
103761
103741
103714
103675
103622
103556
103481
103403
103334
103310
103340
103384
103415
103439
103474
103537
103619
103788
103881
103175
99235.8
92556.3
93829.2
97765.5
99441.2
101860
102148
101922
101597
101336
101200
101084
100711
99911.3
98589.3
96747.2
94529.3
90029.6
103924
103922
103918
103911
103902
103892
103881
103871
103861
103851
103840
103828
103816
103804
103791
103777
103762
103741
103713
103674
103621
103556
103481
103402
103331
103305
103333
103378
103411
103439
103479
103550
103644
103773
103745
103286
95021.5
87743.8
89022.1
93521.8
96039.5
100266
102152
101946
101628
101330
101135
100929
100519
99739.1
98472.2
96900.8
95013.4
90318.5
103916
103914
103910
103904
103895
103885
103876
103866
103856
103846
103836
103824
103812
103798
103784
103768
103750
103727
103697
103659
103610
103551
103486
103421
103365
103329
103319
103323
103331
103348
103389
103473
103574
103792
103437
95989.3
88022.3
86572.2
90573.3
95150.4
96887.6
101740
102681
102334
101884
101577
101471
101393
101030
100316
99229
97574
95183.7
94629.8
103915
103914
103910
103903
103895
103885
103875
103866
103856
103846
103836
103824
103812
103798
103784
103768
103750
103727
103697
103658
103609
103550
103485
103421
103363
103326
103315
103319
103327
103346
103397
103518
103682
103818
103324
95382.2
83482.4
82287
88142.3
91341
96601.9
101284
102777
102384
101943
101613
101402
101213
100832
100133
99076.8
98045.3
95919.7
91442
103908
103906
103903
103897
103888
103879
103870
103861
103852
103842
103832
103820
103807
103793
103778
103760
103740
103715
103684
103645
103597
103542
103482
103420
103362
103313
103275
103246
103226
103218
103229
103273
103350
103183
101352
84878.6
81817.9
84563.3
91000
94251.8
99572
103435
103330
102729
102181
101865
101760
101651
101262
100516
99371
97497.3
95456.1
97948.2
103908
103906
103902
103896
103888
103879
103870
103861
103852
103842
103832
103820
103808
103794
103778
103761
103740
103715
103684
103644
103596
103541
103481
103419
103361
103310
103271
103242
103222
103213
103221
103287
103546
103178
93696.6
79322.9
78377.9
82979.7
89404.9
95322.7
100945
103315
103308
102730
102229
101919
101731
101572
101193
100471
99462.3
98518.9
96554.9
97555.2
103901
103900
103896
103890
103883
103874
103865
103857
103848
103839
103829
103817
103804
103789
103773
103754
103732
103705
103672
103632
103585
103530
103469
103405
103341
103276
103215
103159
103108
103059
103004
102954
102884
101965
89342.4
77786.8
81958.5
87817.3
93635.5
97667.7
100997
103427
103727
103027
102528
102272
102167
102071
101757
100891
99590.7
96881.4
93119.4
92811.3
103901
103899
103896
103890
103883
103874
103865
103857
103848
103839
103828
103817
103804
103789
103773
103754
103732
103705
103672
103632
103584
103528
103468
103404
103338
103274
103213
103156
103105
103053
102992
102854
102719
98097.2
79079.8
74822.7
81587.1
87117.3
93732.9
98137.6
101173
103907
103501
102933
102520
102286
102203
102124
101782
100786
99386.2
97762.7
95753.6
98381.8
103895
103894
103890
103885
103878
103870
103861
103853
103845
103836
103826
103814
103801
103785
103768
103748
103724
103696
103662
103620
103571
103515
103452
103383
103309
103231
103150
103069
102984
102904
102751
102793
102253
82557.1
69451.3
76421.7
86573
91889.8
97156.1
100299
103336
103577
103333
103168
102859
102730
102617
102474
102312
101835
101357
98969.3
92593.4
94701.6
103895
103893
103890
103885
103878
103870
103861
103853
103845
103836
103826
103814
103801
103785
103768
103748
103724
103696
103661
103619
103570
103514
103450
103380
103307
103228
103147
103066
102984
102894
102784
102451
98810.7
89667.2
72517.8
79441
88236.3
92344.7
97101.1
95062
103196
104048
103299
102906
102730
102709
102688
102608
102415
101527
100388
98294.1
93671.7
91635.9
103890
103889
103886
103880
103873
103866
103858
103850
103842
103833
103823
103811
103798
103782
103764
103742
103717
103688
103652
103608
103557
103498
103431
103356
103272
103180
103080
102976
102860
102740
102522
101734
101745
81543.9
79195.2
87260.3
95589.9
99692.8
103501
102968
104481
103460
102981
103128
103056
103051
102833
102445
102320
102400
102776
100404
91587.7
94027.6
103890
103888
103885
103880
103873
103866
103858
103850
103842
103833
103823
103811
103798
103782
103764
103742
103717
103687
103651
103607
103556
103497
103429
103354
103269
103177
103078
102975
102861
102744
102600
102129
98220.4
80994.3
80935.5
89412.9
96344.8
100462
105202
104885
103798
103777
102971
102875
102889
103022
102930
102634
102401
102089
101938
99690
92056.7
94907.5
103886
103884
103881
103876
103870
103863
103855
103847
103840
103831
103821
103809
103795
103779
103760
103738
103711
103680
103642
103597
103544
103481
103410
103328
103235
103130
103014
102887
102748
102596
102477
102543
107014
111709
102446
104020
107758
107088
104890
104882
104042
103082
102756
103048
103167
103316
102770
101996
101785
101220
99912.3
95592.3
87912.6
93676.7
103886
103884
103881
103876
103870
103862
103855
103847
103840
103831
103821
103809
103795
103779
103760
103738
103711
103679
103641
103596
103542
103480
103408
103325
103232
103127
103012
102887
102744
102592
102421
102304
104404
99736.3
99019.8
104041
107553
107747
108133
104354
103619
103168
102781
102942
103042
103346
102859
102084
101593
100583
99205.2
95210.7
88090.8
92937.3
103882
103881
103878
103873
103867
103860
103853
103845
103838
103829
103819
103807
103793
103776
103757
103734
103706
103673
103634
103587
103531
103466
103390
103302
103200
103084
102954
102806
102646
102467
102303
102095
102437
105518
105629
107331
109474
109111
106662
104951
103631
102936
102861
103109
103316
103556
103076
102519
102210
100475
97883.6
93278.6
85509.5
95502.8
103882
103881
103878
103873
103867
103860
103853
103845
103838
103829
103819
103807
103793
103776
103757
103733
103706
103673
103633
103586
103530
103464
103388
103300
103198
103081
102953
102800
102628
102444
102239
101841
102217
102929
105052
108230
110472
109028
106629
104392
103390
102874
102868
103018
103206
103665
103201
102396
101821
100024
97801.7
92801.6
85228.8
95322.2
103880
103879
103876
103871
103865
103858
103851
103844
103836
103828
103818
103806
103791
103774
103754
103730
103702
103668
103627
103578
103520
103452
103373
103280
103172
103047
102907
102747
102573
102376
102161
101935
101562
101943
102877
104898
106759
107382
105486
103814
102948
102598
102854
103201
103336
103314
102664
102466
102538
101647
100654
94638.9
79971.3
89347.4
103880
103878
103876
103871
103865
103858
103851
103844
103836
103828
103817
103805
103791
103774
103754
103730
103701
103667
103626
103577
103518
103450
103371
103277
103169
103044
102904
102741
102564
102363
102136
101769
101430
101606
103326
105589
107104
106794
105325
103706
102706
102562
102848
103147
103297
103520
103110
102534
102150
101379
100921
95156.1
80425.6
89215.7
103878
103877
103874
103869
103864
103857
103850
103843
103836
103827
103817
103805
103790
103773
103752
103728
103699
103664
103621
103571
103511
103442
103359
103263
103151
103021
102875
102710
102528
102325
102101
101867
101567
101278
101021
101164
100382
99915.4
99237.9
99892.5
101044
101727
102265
103147
103435
103128
102712
103038
104588
107406
111157
104946
74822.7
80487.9
103878
103877
103874
103869
103863
103857
103850
103843
103835
103827
103817
103805
103790
103773
103752
103728
103698
103663
103620
103570
103510
103440
103357
103261
103148
103019
102872
102708
102525
102312
102087
101868
101561
101490
101563
101791
102316
101125
99998.1
100337
101186
101850
102437
103230
103541
103383
103064
103033
104162
106921
111117
104938
74306.1
80094.5
103877
103876
103873
103868
103862
103856
103849
103842
103835
103826
103816
103804
103789
103772
103751
103726
103696
103660
103617
103566
103505
103433
103350
103251
103137
103005
102856
102690
102507
102306
102088
101856
101562
101142
100605
99833.7
98748.2
97517.7
97142.6
97921.8
99235.9
101019
102430
103048
103365
102972
103586
104961
106590
111744
116403
108234
78744.6
60859.3
103877
103876
103873
103868
103862
103856
103849
103842
103835
103826
103816
103804
103789
103771
103750
103725
103695
103659
103616
103564
103503
103432
103347
103249
103134
103002
102853
102688
102504
102302
102089
101870
101602
101237
100752
99874.4
98755.8
97552.5
96999.7
97694.7
99071.4
101583
102490
103078
103415
103203
103266
104368
107140
111871
116560
108547
78848.9
60503.2
103102
104261
102959
104957
104450
102280
102187
102158
102249
101985
103007
103940
102827
104159
104012
102126
102293
102192
101936
102037
104219
103162
102265
103101
101962
102326
102076
102277
102413
101907
102121
103992
103056
101766
103118
101515
102015
102055
101709
102072
101336
102263
103637
103843
103634
103993
103648
103988
103642
102983
103274
102964
102934
102558
102924
102545
103627
103795
103561
103969
103662
103894
103532
102948
103209
102921
102949
102528
102821
102483
104370
104197
104377
104265
104583
104284
104603
101121
102026
102349
102038
100978
102743
102485
102714
102385
102629
102286
102586
104349
104098
104241
104222
104461
104138
104343
100723
101922
102151
101931
100971
102660
102425
102657
102220
102541
102266
102559
104290
104140
104336
103820
103699
103819
103698
102035
104533
103883
103831
102351
102126
102428
102739
102357
102686
102565
102797
102462
102753
104193
104021
104102
103782
103618
103758
103609
101068
103727
103449
101411
103407
101282
101827
102660
102364
102669
102479
102756
102516
102763
102694
103020
102590
103122
102880
103106
102840
102368
102231
102224
102693
102713
102631
102667
102433
102939
102417
103065
102777
103061
102771
102178
102047
102243
102565
102643
102556
102645
104472
103810
103044
103770
104551
104455
103034
103830
103776
104042
105008
104936
104936
104925
105112
104810
104975
104896
104503
104763
104802
104225
104653
103089
101207
102302
101891
102019
101105
101005
100865
101515
102246
102180
102192
101517
101093
101038
101467
101976
102047
102046
101356
105584
103829
102735
103505
103852
104136
102666
103256
103291
101359
105242
104254
104473
104137
104905
112061
101892
104817
106289
104180
104153
115060
104889
101777
100606
102033
101847
101783
100621
100726
100886
101173
101930
101932
101225
101930
100501
100609
101219
102017
102014
102009
101227
101100
101394
101804
104430
103718
103819
101634
100847
100770
101280
102410
102261
102404
101508
101179
102124
102199
101112
102322
102158
102253
102363
102243
102471
102006
101797
102031
102127
102057
102113
101866
102036
102361
102244
102262
102383
101909
102102
101966
101834
102088
99903.9
100557
101431
104012
103784
103645
101691
100302
99661.8
100781
102084
101542
101032
101956
100876
101483
102024
101964
101214
101390
101968
101996
101740
101966
99518.8
137094
101048
102044
101913
102012
100178
101548
101754
101417
101718
101629
100880
101401
101414
101565
98752.8
104652
104240
104321
104646
104218
104643
104679
104898
104111
103993
104209
103901
104337
104008
104643
104305
104149
104480
104205
104613
104539
101970
102104
102259
102229
102092
102229
101923
101887
102224
101981
102012
102079
102103
101753
104297
104011
103536
105119
103746
104388
104642
101490
101920
102130
101917
101917
101560
101875
101571
102099
101957
101981
101872
101957
101525
102532
103338
102758
103148
103307
102730
102603
102473
103254
103159
102652
103324
102445
102717
102202
102405
102376
102287
102254
102224
102391
102007
102045
102170
101992
102099
101897
102072
102466
103198
102665
103023
102490
103151
102616
102607
103352
103041
102760
103223
102641
102808
101792
101997
101849
102147
101814
101986
101897
101506
102009
102234
101918
102025
101894
101144
100785
101592
100036
101053
101562
100807
99894.7
100333
101046
100831
100534
100402
100903
100774
100460
100644
101002
101424
99871
101514
99810.7
100732
100881
101252
100724
100185
101238
100782
100209
100614
101169
100680
100767
100795
100862
101280
100204
100769
101245
100158
100564
100071
100433
100245
103361
102477
102858
102121
102598
103223
102915
104086
104786
104784
104165
104008
104554
104687
103852
103441
102183
102837
103045
102687
102984
103506
102249
102352
101668
100102
101100
102543
100391
101772
102236
100686
101558
100845
101568
101621
106363
103120
101999
101522
101116
100937
102426
101998
100099
102307
100497
101237
103327
104137
103739
104485
104150
103321
103712
102541
101803
101628
102640
102381
101626
101486
102451
103378
104526
104188
103866
104181
103754
103507
103462
104165
103713
104428
103355
104176
103798
103135
102893
102305
103693
102649
101706
102500
101825
103725
104332
104244
86504.7
104242
103592
103920
105237
104982
105190
105080
105032
105286
105149
105316
105179
105199
105290
105239
104990
105107
105134
105279
105130
105040
105363
105061
105365
105246
104868
104926
104621
104902
104765
104811
104802
104917
104051
103837
102742
103133
103468
104341
104614
104616
104802
104635
103644
104042
104360
104583
104783
104128
104577
104329
100905
101608
100228
101224
100898
101557
100236
100739
101713
100878
101347
100649
100950
100544
101070
100839
101172
101347
100312
100849
101434
100220
100977
100900
101957
101916
101686
101525
101966
101697
101913
102180
102366
102333
102250
102151
102248
102118
102266
101963
101477
101925
101716
101947
101698
101995
101139
101082
101758
101812
101430
101596
101759
101799
101546
101885
101995
101848
102001
101684
101415
101651
101467
101683
101497
101635
101961
102138
102012
102067
102037
102964
104281
103236
103436
101733
100959
101642
101834
101087
102467
102553
103917
104106
101884
103758
103203
101574
100784
100038
100359
100478
102110
102953
103262
103517
101965
103108
102435
99822.3
99855.3
99766.6
99691.5
101425
100472
101097
100774
101126
101983
101965
100791
102420
101056
101066
108352
105749
105698
105813
105621
103018
105664
126799
102173
106722
102069
105715
104610
104578
116433
105064
103714
104422
109066
111683
106283
108897
109639
104342
111316
104868
108068
105685
107653
105057
102470
104925
99022.3
101949
111528
104865
107431
106495
104710
114046
106858
106081
106829
106096
101031
117544
105255
105380
100475
101186
99766
100652
100562
101219
99585.5
99937.3
99074.5
100326
100406
99914.9
100070
99996.1
100231
100641
100684
101276
99917.2
101243
99794.7
101294
100798
100804
101700
101156
101595
101438
101579
101423
101712
101854
101956
101830
101942
101665
101178
101585
101437
101640
101569
101424
101882
101980
101907
101945
100540
100585
101846
101686
101478
101233
101732
101812
101509
101957
102001
101951
102002
101975
102012
101962
101969
101798
101188
101661
101560
101663
101524
101817
101187
101210
102812
102017
102727
101682
102952
101695
102655
102901
102691