/*--------------------------------*- C++ -*----------------------------------*\
| =========                 |                                                 |
| \\      /  F ield         | OpenFOAM: The Open Source CFD Toolbox           |
|  \\    /   O peration     | Version:  4.1                                   |
|   \\  /    A nd           | Web:      www.OpenFOAM.org                      |
|    \\/     M anipulation  |                                                 |
\*---------------------------------------------------------------------------*/
FoamFile
{
    version     2.0;
    format      ascii;
    class       surfaceScalarField;
    location    "18";
    object      phi;
}
// * * * * * * * * * * * * * * * * * * * * * * * * * * * * * * * * * * * * * //

dimensions      [0 3 -1 0 0 0 0];

internalField   nonuniform List<scalar> 
11516
(
9.98186e+06
2729.41
24945.6
1.00472e+07
12571.2
21792.9
1.00758e+07
14588.6
55912.5
1.00654e+07
14566.5
93264.9
1.00115e+07
14389
135971
9.91052e+06
14235.6
183215
9.75862e+06
14170.7
235326
9.55202e+06
14237.8
291983
9.28714e+06
14331.1
352108
8.95992e+06
14203.5
414010
8.57197e+06
13830.2
474626
8.1322e+06
12271.2
527964
7.67194e+06
13460.4
563373
7.22268e+06
16717.3
576804
6.8384e+06
7039.13
556282
6.56642e+06
692.742
514297
6.35712e+06
19668.2
516085
6.09956e+06
43438.4
493284
5.94972e+06
26114
358411
6.23873e+06
9742.39
-153939
6.73393e+06
-102593
-308803
7.18993e+06
-121850
-273211
8.11303e+06
27329.9
-899403
9.8362e+06
232650
-1.90163e+06
1.21947e+07
302073
-2.60083e+06
1.45705e+07
299496
-2.60355e+06
1.64723e+07
237636
-2.06281e+06
1.75207e+07
106615
-1.081e+06
1.74451e+07
39021.3
92310.8
1.6394e+07
-45590.2
1.14044e+06
1.47467e+07
-108767
1.79427e+06
1.26814e+07
-34776.7
2.14864e+06
1.00175e+07
165454
2.5683e+06
6.66785e+06
268327
3.21659e+06
2.20155e+06
-132800
4.83571e+06
-574184
-1.82841e+06
5.15601e+06
-4.18065e+06
-779768
5.03356e+06
-5.5881e+06
-1.00609e+06
2.94418e+06
-7.10712e+06
54415.6
1.89331e+06
-6.57105e+06
1.15373e+06
-1.23149e+06
-3.99396e+06
2.29727e+06
-4.27037e+06
-1.03143e+06
3.04935e+06
-5.10743e+06
1.83879e+06
2.3304e+06
-4.21824e+06
4.45488e+06
771441
-2.32676e+06
6.33374e+06
-138703
-597491
8.00714e+06
-1.04733e+06
547524
8.67995e+06
-1.27592e+06
1.63198e+06
7.68118e+06
-699285
2.30451e+06
6.10397e+06
-529314
2.76396e+06
-2.34716e+06
-1.58778e+06
1.02793e+07
-5.08158e+06
-6.41686e+06
9.27898e+06
2.30552e+07
-9.07542e+06
-1.95022e+07
3.68684e+07
-4.88477e+06
-9.13013e+06
-1.74584e+06
-2.03298e+07
9.98532e+06
25149.7
1.00454e+07
22314.9
1.0073e+07
56689.2
1.00621e+07
94080.7
1.0008e+07
136637
9.90685e+06
183563
9.75497e+06
235143
9.54863e+06
291086
9.28423e+06
350212
8.95843e+06
411126
8.57305e+06
469819
8.13828e+06
521438
7.67927e+06
557065
7.23261e+06
568525
6.82828e+06
551409
6.52168e+06
505123
6.27708e+06
512975
6.07503e+06
445968
5.9872e+06
263254
6.35252e+06
-272264
6.87005e+06
-566634
7.26011e+06
-472169
7.96643e+06
-643501
9.59299e+06
-1.35731e+06
1.20995e+07
-2.1641e+06
1.4778e+07
-2.33701e+06
1.69228e+07
-1.86567e+06
1.79895e+07
-923925
1.78648e+07
194758
1.68185e+07
1.02979e+06
1.51267e+07
1.61954e+06
1.30442e+07
2.09868e+06
1.06179e+07
2.66949e+06
8.04959e+06
2.94717e+06
5.55602e+06
2.56206e+06
2.60826e+06
1.42833e+06
-1.35717e+06
3.5075e+06
-6.46625e+06
4.48717e+06
-9.21268e+06
3.17098e+06
-9.15079e+06
1.53245e+06
-8.94544e+06
2.86893e+06
-5.46342e+06
467317
-1.27681e+06
-1.05875e+06
2.30631e+06
-2.07886e+06
5.2e+06
-2.36946e+06
8.35569e+06
-3.64836e+06
1.06418e+07
-3.15551e+06
8.76518e+06
1.53369e+06
5.24141e+06
3.33323e+06
-3.40489e+06
7.17501e+06
-1.54022e+07
5.3422e+06
-2.78992e+06
-2.1879e+07
9.16208e+06
-1.69912e+07
-3.77575e+07
1.00377e+07
2895.73
14932.8
1.01653e+07
13350.3
-13194
1.02927e+07
15602.8
18075.9
1.04208e+07
15585
52000.1
1.05507e+07
15351
90606
1.0684e+07
15161.5
132962
1.08198e+07
15084
181619
1.0955e+07
15239.2
238464
1.1082e+07
15445.5
305991
1.11893e+07
15643.4
384902
1.12632e+07
15775.3
475703
1.12892e+07
15289.6
573520
1.12648e+07
18035.3
672115
1.11867e+07
18368.5
747961
1.10319e+07
33387.1
837412
1.08504e+07
27093.6
857431
1.07261e+07
37100.9
895811
1.03518e+07
40442.4
969851
9.901e+06
38284.4
835203
9.20319e+06
37571.1
542367
8.65071e+06
40683.4
227627
8.72602e+06
35816.3
-368732
9.37761e+06
-8459.93
-1.53091e+06
1.03679e+07
-19616.1
-2.86322e+06
1.14405e+07
18903.7
-3.68536e+06
1.25473e+07
68263.3
-3.77267e+06
1.35952e+07
120309
-3.22284e+06
1.44538e+07
144443
-2.0713e+06
1.48378e+07
150695
-425211
1.46734e+07
9609.76
1.31294e+06
1.40479e+07
-124731
2.56257e+06
1.29572e+07
-67028.6
3.32292e+06
1.148e+07
-87149.8
4.15091e+06
9.65977e+06
-285248
5.35131e+06
7.45194e+06
-231202
7.36479e+06
2.70571e+06
765856
9.29993e+06
-1.72111e+06
1.66624e+06
8.15451e+06
-3.40397e+06
-3803.03
5.18187e+06
-2.56294e+06
-266915
1.54659e+06
-1.45032e+06
1.06878e+06
-3.19182e+06
55798.8
965844
-6.45779e+06
1.61366e+06
756155
-7.03522e+06
3.14709e+06
50607.3
-5.32366e+06
4.93835e+06
-845158
-2.71997e+06
6.36276e+06
-1.65974e+06
225671
7.2014e+06
-2.31562e+06
2.54892e+06
9.90344e+06
-2.55574e+06
1.94436e+06
8.24759e+06
-1.97529e+06
6.36833e+06
1.82424e+06
-2.13308e+06
1.16751e+07
-907837
-2.66366e+06
1.5866e+07
-1.26077e+07
-4.1385e+06
2.49079e+07
-3.45557e+07
-4.90979e+06
7.15815e+06
-2.88521e+07
-6.24321e+06
-8.66595e+06
-1.46214e+06
-1.22176e+07
1.00413e+07
14997.5
1.01638e+07
-12919.4
1.02903e+07
17962
1.04183e+07
51847.9
1.05485e+07
90540
1.06819e+07
133024
1.08177e+07
181841
1.09524e+07
238795
1.10785e+07
306361
1.11849e+07
385322
1.12579e+07
475207
1.12848e+07
573229
1.12608e+07
667500
1.1182e+07
753913
1.10667e+07
818990
1.09532e+07
819757
1.07819e+07
904472
1.04414e+07
911088
9.98759e+06
792515
9.29668e+06
477765
8.67403e+06
111249
8.69876e+06
-450705
9.43269e+06
-1.37765e+06
1.05335e+07
-2.47174e+06
1.17117e+07
-3.31895e+06
1.30281e+07
-3.57964e+06
1.45074e+07
-3.21534e+06
1.58172e+07
-2.07586e+06
1.66723e+07
-491630
1.67955e+07
941314
1.61359e+07
2.17815e+06
1.49109e+07
3.27578e+06
1.32041e+07
4.30718e+06
1.07334e+07
5.17701e+06
7.65052e+06
5.50069e+06
4.54777e+06
5.45357e+06
2.83015e+06
7.07426e+06
-1.0343e+06
8.55463e+06
-5.07098e+06
7.24619e+06
-7.22137e+06
5.20213e+06
-4.10829e+06
1.12541e+06
-166389
-2.3196e+06
2.99752e+06
-3.81211e+06
6.05298e+06
-5.63817e+06
9.10597e+06
-6.76927e+06
1.28917e+07
-9.47275e+06
1.61635e+07
-8.63093e+06
1.83516e+07
-2.28505e+06
1.96656e+07
135598
1.18326e+07
1.234e+07
-7.50492e+06
2.04724e+07
-3.59473e+07
1.47878e+06
-4.1922e+07
-1.72545e+07
-3.69197e+07
1.00144e+07
2944.52
19734
1.01115e+07
13496.3
-20254.1
1.01945e+07
15390.9
21493.4
1.02643e+07
15226.2
66224.4
1.03219e+07
14899.8
115272
1.03713e+07
14581.7
164977
1.04172e+07
14342.1
216993
1.04643e+07
14237.2
272921
1.05189e+07
14215
333019
1.05839e+07
13943.6
399607
1.0661e+07
13603.6
473553
1.0751e+07
12707.4
556417
1.08518e+07
13203.5
647435
1.09546e+07
17616.5
734136
1.10754e+07
27924.2
846705
1.12331e+07
29191.4
886132
1.1294e+07
41996.1
1.04647e+06
1.07397e+07
18354.9
1.57716e+06
9.827e+06
35456.3
1.74876e+06
8.84414e+06
24641.5
1.52322e+06
8.14945e+06
31917
907943
8.02776e+06
23555
-258590
8.30625e+06
-30081.5
-1.76695e+06
8.64259e+06
-75284.8
-3.11694e+06
8.96357e+06
-50880.5
-3.95014e+06
9.46385e+06
37533.9
-4.30215e+06
9.98424e+06
166523
-3.89498e+06
1.00635e+07
257788
-2.38719e+06
9.67981e+06
267593
-282885
9.14937e+06
31356
1.83971e+06
8.32816e+06
-17734.9
3.42757e+06
7.19769e+06
156958
4.3161e+06
6.13779e+06
180194
5.05104e+06
5.47149e+06
9633.63
6.06296e+06
5.52935e+06
54152.2
7.29706e+06
3.15341e+06
1.92546e+06
9.8421e+06
732469
1.93882e+06
8.84989e+06
218796
274467
5.7746e+06
-9344.99
-621543
2.62088e+06
649698
-215884
-3.44068e+06
1.19273e+06
224046
-7.10101e+06
2.33176e+06
62423.5
-8.04788e+06
4.34089e+06
-374868
-6.71925e+06
6.67995e+06
-863258
-3.88911e+06
9.08024e+06
-1.30766e+06
-491837
1.2324e+07
-826860
483838
1.15488e+07
-22045.2
3.07444e+06
2.70946e+06
-613129
1.58984e+07
-2.53336e+06
-67969.3
1.68925e+07
5.5602e+06
-4.16777e+06
1.17793e+07
1.97251e+07
-3.36075e+06
1.40315e+07
2.54248e+07
-7.84437e+06
9.18143e+06
2.20138e+07
-1.63615e+07
1.12287e+07
-3.48861e+06
3.6082e+06
1.00179e+07
19644.8
1.01096e+07
-20904.8
1.01917e+07
21135.9
1.02613e+07
65959.9
1.03189e+07
115005
1.03684e+07
164698
1.04143e+07
216720
1.04613e+07
272665
1.05154e+07
332866
1.05798e+07
399596
1.06567e+07
473718
1.07466e+07
556236
1.08482e+07
643793
1.09593e+07
741151
1.10797e+07
838286
1.12244e+07
873621
1.12997e+07
1.03089e+06
1.07617e+07
1.53312e+06
9.88646e+06
1.72725e+06
8.922e+06
1.48327e+06
8.21627e+06
861166
8.05611e+06
-255932
8.31155e+06
-1.65427e+06
8.68048e+06
-2.9094e+06
9.09708e+06
-3.78038e+06
9.79108e+06
-4.22524e+06
1.06261e+07
-3.86676e+06
1.12327e+07
-2.40009e+06
1.13639e+07
-323201
1.08235e+07
1.54552e+06
9.91901e+06
3.08817e+06
9.12852e+06
4.24127e+06
8.43016e+06
5.22346e+06
7.35594e+06
6.30537e+06
5.92764e+06
7.04577e+06
5.20861e+06
8.17869e+06
5.36493e+06
8.98822e+06
4.38448e+06
1.00418e+07
1.43863e+06
9.91228e+06
-1.62597e+06
8.47476e+06
85453.7
-195449
2.30981e+06
-4.30095e+06
4.8718e+06
-6.59454e+06
8.08734e+06
-9.58022e+06
1.15635e+07
-1.14437e+07
1.59918e+07
-1.46196e+07
1.93394e+07
-1.19516e+07
1.79667e+07
-1.58263e+06
1.22603e+07
5.42435e+06
1.03775e+07
9.84195e+06
1.59594e+07
1.14213e+07
3.06226e+06
6.49287e+06
-4.11943e+07
1.05744e+07
3.29015e+07
1.00123e+07
2839.39
24227.4
1.01078e+07
12649.2
-29335.3
1.01891e+07
14857.3
23722.4
1.02566e+07
14791.2
79909.2
1.03098e+07
14470.8
141203
1.03503e+07
14131.3
202393
1.03788e+07
13864.1
266168
1.03971e+07
13720.6
332634
1.04061e+07
13668.3
402553
1.04062e+07
13367.2
476932
1.03969e+07
12869.7
556056
1.03832e+07
11738.1
640146
1.03712e+07
10510.9
725916
1.03822e+07
17801.6
809821
1.04474e+07
15413.4
893856
1.06005e+07
28776.6
925729
1.08126e+07
39931.1
1.0185e+06
1.07596e+07
42279.8
1.71781e+06
9.9261e+06
28562.6
2.59681e+06
8.9469e+06
33879.2
2.49503e+06
8.17259e+06
37378.2
1.6664e+06
7.7215e+06
4467.02
211666
7.35091e+06
-66207.6
-1.30856e+06
6.86113e+06
-78796.7
-2.53103e+06
6.36969e+06
-52149.8
-3.38945e+06
6.04937e+06
31417.8
-3.98727e+06
5.57033e+06
153643
-3.53262e+06
4.57872e+06
181838
-1.5382e+06
3.23949e+06
151267
943583
1.84617e+06
153784
3.11132e+06
727528
190881
4.37757e+06
111572
223070
4.72901e+06
128503
300153
4.76187e+06
959435
357861
4.89641e+06
2.2739e+06
552994
5.44844e+06
3.02793e+06
1.76165e+06
7.36166e+06
1.18375e+06
1.83455e+06
9.07054e+06
1.75189e+06
-876225
6.76313e+06
1.47136e+06
-367069
3.48166e+06
1.7246e+06
-42563.8
-3.46686e+06
2.19721e+06
383887
-7.93232e+06
3.34862e+06
337381
-9.51223e+06
4.6267e+06
226201
-8.16103e+06
7.29932e+06
-52487.3
-6.45509e+06
1.07077e+07
-310491
-3.5742e+06
1.04736e+07
759062
-105304
1.53154e+06
422638
1.12458e+07
-5.88736e+06
-896460
2.37321e+07
-7.35757e+06
488080
1.71257e+07
-2.27682e+06
-122331
5.86013e+06
9.59896e+06
-504303
2.25644e+06
2.51185e+07
-4.41403e+06
-1.88167e+06
3.64768e+07
-5.27065e+06
4.96808e+06
-4.64059e+06
-9.82479e+06
1.00158e+07
24285.7
1.01063e+07
-29023.7
1.01866e+07
23375.7
1.02537e+07
79381.6
1.03068e+07
140638
1.03474e+07
201817
1.03758e+07
265594
1.0394e+07
332082
1.04024e+07
402053
1.04017e+07
476525
1.03922e+07
555785
1.03774e+07
639348
1.03664e+07
724835
1.03856e+07
810033
1.04536e+07
896602
1.05799e+07
929591
1.08126e+07
1.00021e+06
1.07342e+07
1.74103e+06
1.0026e+07
2.49416e+06
9.08821e+06
2.47464e+06
8.31522e+06
1.68865e+06
7.7821e+06
302786
7.29521e+06
-1.21441e+06
6.75555e+06
-2.43403e+06
6.26719e+06
-3.33072e+06
5.96671e+06
-3.8725e+06
5.51729e+06
-3.23756e+06
4.66273e+06
-1.33866e+06
3.54275e+06
971314
2.30408e+06
2.95782e+06
1.38006e+06
4.21714e+06
1.13142e+06
4.72988e+06
1.63463e+06
5.03835e+06
2.73066e+06
5.58849e+06
3.85626e+06
6.4961e+06
5.51623e+06
8.36282e+06
6.37241e+06
1.01317e+07
5.33491e+06
1.04636e+07
3.88164e+06
1.13877e+07
2.2922e+06
1.02474e+07
3.31564e+06
-797721
4.12675e+06
-4.76184e+06
6.10455e+06
-8.33479e+06
8.84439e+06
-1.23587e+07
1.07999e+07
-1.3705e+07
1.23167e+07
-1.54715e+07
1.13286e+07
-1.08499e+07
3.58584e+06
4.8117e+06
-4.9903e+06
1.36392e+07
-402852
4.34562e+06
2.93061e+06
7.46197e+06
1.25977e+07
-7.74723e+06
1.92169e+07
-1.27284e+06
-9.34289e+06
1.00127e+07
2831.39
28924.7
1.01043e+07
12729.1
-37729.1
1.01838e+07
14419.1
23466.8
1.0251e+07
14197.1
89128.9
1.03058e+07
13857.2
160784
1.03496e+07
13539.7
231756
1.03835e+07
13310.8
305228
1.04079e+07
13224.8
381431
1.0422e+07
13245.6
462256
1.04229e+07
13047.2
548756
1.04051e+07
12561.5
642044
1.0364e+07
11142.1
742103
1.03007e+07
9981.53
846937
1.02224e+07
14125.2
949608
1.0163e+07
16609.8
1.04073e+06
1.01152e+07
24537
1.12935e+06
1.01499e+07
47671.9
1.15645e+06
1.05712e+07
24071.2
1.47031e+06
1.06097e+07
-36475.8
2.65053e+06
9.9437e+06
47970.1
3.16193e+06
9.03385e+06
31201.3
2.58144e+06
8.14379e+06
-37630.9
1.19542e+06
7.0522e+06
-75532.6
-103038
5.7599e+06
-72044
-1.13486e+06
4.42393e+06
-64955.4
-1.96691e+06
3.11176e+06
-3063.55
-2.63643e+06
1.67595e+06
90818.5
-2.1496e+06
143240
108956
-89061.3
-1.17819e+06
66339.9
2.21646e+06
-2.11654e+06
75095.6
3.98705e+06
-2.55766e+06
80751.4
4.74762e+06
-2.5818e+06
83909.7
4.67798e+06
-2.26871e+06
141161
4.31596e+06
-1.66771e+06
286392
4.0126e+06
-388443
365033
3.80652e+06
2.03094e+06
1.57584e+06
3.41967e+06
1.1493e+06
1.39901e+06
8.89572e+06
1.67481e+06
140909
6.74165e+06
1.76144e+06
-407122
4.24624e+06
1.54266e+06
178782
-3.32362e+06
2.21764e+06
285297
-8.88826e+06
3.48527e+06
80363.2
-1.08268e+07
5.67286e+06
386579
-1.06977e+07
7.48505e+06
356551
-8.45993e+06
9.43431e+06
-202714
-5.08393e+06
4.17355e+06
508405
4.57266e+06
-4.35124e+06
618573
1.88873e+07
-5.28277e+06
-828368
2.48527e+07
-4.56943e+06
28462.1
1.51207e+07
-2.87399e+06
-1.19179e+06
3.61808e+06
883922
-621633
-1.51119e+06
9.14216e+06
-7.10064e+06
-3.74383e+06
1.31238e+07
173824
680193
3.37181e+06
1.15324e+06
1.0016e+07
28744.5
1.01024e+07
-38863.6
1.01811e+07
22666.1
1.02481e+07
88390.3
1.03029e+07
159962
1.03468e+07
230822
1.03806e+07
304175
1.04048e+07
380276
1.04185e+07
461004
1.04185e+07
547450
1.04e+07
640555
1.03585e+07
740111
1.02943e+07
843938
1.02279e+07
942540
1.01777e+07
1.03977e+06
1.01167e+07
1.12655e+06
1.0177e+07
1.12841e+06
1.05263e+07
1.51438e+06
1.06515e+07
2.39481e+06
1.01156e+07
3.1022e+06
9.22378e+06
2.65663e+06
8.17459e+06
1.36316e+06
6.91942e+06
6828.88
5.52723e+06
-1.09504e+06
4.10203e+06
-1.95099e+06
2.67954e+06
-2.43141e+06
1.25968e+06
-1.71026e+06
-72204.9
115622
-1.18469e+06
2.16056e+06
-1.98753e+06
3.84368e+06
-2.32617e+06
4.64236e+06
-2.19929e+06
4.69119e+06
-1.58549e+06
4.56744e+06
-547507
4.83662e+06
1.97509e+06
4.35115e+06
5.14921e+06
6.83962e+06
5.98878e+06
1.08291e+07
5.90894e+06
1.09219e+07
5.67996e+06
1.1423e+07
5.44926e+06
1.08867e+07
4.97111e+06
-16179.5
5.02617e+06
-4.68276e+06
6.99593e+06
-9.828e+06
8.40023e+06
-1.3322e+07
8.30784e+06
-1.37773e+07
7.30254e+06
-1.41062e+07
5.63783e+06
-8.9674e+06
-108498
9.16336e+06
-3.74595e+06
1.61639e+07
-7.2731e+06
5.7015e+06
-4.90225e+06
4.0277e+06
-2.18773e+07
2.04259e+06
-2.31111e+07
-124255
-984234
1.00113e+07
2637.08
31276.8
1.00988e+07
11332.7
-48114.2
1.01755e+07
13394.6
21119
1.02414e+07
13274.5
94733
1.02967e+07
12910
174707
1.03424e+07
12536.3
253696
1.03799e+07
12255.7
334636
1.04101e+07
12140.5
418354
1.04327e+07
12134.5
506913
1.04455e+07
11940.9
601663
1.04421e+07
11262.4
704909
1.04147e+07
9487.25
816882
1.03591e+07
7200.11
938455
1.02661e+07
7153.46
1.06292e+06
1.01618e+07
11576.7
1.18915e+06
1.00278e+07
1005.21
1.33441e+06
9.86944e+06
7447.81
1.46054e+06
1.00282e+07
-69492.5
1.53052e+06
1.05857e+07
-93871
2.31386e+06
1.06957e+07
68263.8
3.08766e+06
1.01614e+07
95862.5
3.13697e+06
8.98512e+06
-44123.3
2.54077e+06
7.44071e+06
-73627
1.58316e+06
5.73309e+06
-56961
664230
3.91467e+06
-82874.1
-32781.1
2.02325e+06
-28351.8
-677395
353320
56444.9
-502288
-917953
83887.4
1.12066e+06
-1.75639e+06
28982.5
3.04063e+06
-2.17642e+06
13580.3
4.40428e+06
-2.28055e+06
21388.6
4.83544e+06
-2.23946e+06
34174.6
4.60661e+06
-2.20609e+06
74026
4.20409e+06
-2.27745e+06
299533
3.7837e+06
-3.10868e+06
2.05349e+06
2.58052e+06
360059
309055
-275343
3.68019e+06
1.31033e+06
4.60414e+06
1.24048e+06
1.13609e+06
8.63153e+06
1.60066e+06
99776.2
4.25025e+06
1.50105e+06
-923449
-2.03945e+06
2.0502e+06
-493914
-8.86948e+06
3.45317e+06
-444848
-1.16257e+07
6.37385e+06
593908
-1.38522e+07
5.54421e+06
85900.4
-7.31609e+06
5.12437e+06
-750335
-3.75502e+06
-591795
-432926
1.06322e+07
-4.55826e+06
1.47121e+06
2.08212e+07
-1.38313e+06
-1.62989e+06
2.20273e+07
2.90913e+06
-4.84186e+06
1.38803e+07
3.23648e+06
-2.69021e+06
4.36516e+06
4.80977e+06
-3.27138e+06
-1.29496e+06
1.0945e+07
-5.31339e+06
-5.11338e+06
1.44797e+07
1.98935e+06
-5.38318e+06
-690320
-4.24596e+06
1.00145e+07
31377.4
1.00975e+07
-47586.4
1.01731e+07
20781.2
1.02387e+07
94152.2
1.0294e+07
174069
1.03396e+07
253035
1.03771e+07
333974
1.04071e+07
417720
1.04293e+07
506340
1.04411e+07
601201
1.04366e+07
704460
1.04087e+07
816428
1.03508e+07
937310
1.02674e+07
1.05979e+06
1.01664e+07
1.18671e+06
1.00159e+07
1.34482e+06
9.79634e+06
1.44689e+06
9.70208e+06
1.64654e+06
9.89007e+06
2.21015e+06
1.02588e+07
2.89722e+06
1.0101e+07
3.00447e+06
9.11612e+06
2.41329e+06
7.2923e+06
1.83418e+06
5.31725e+06
850570
3.38106e+06
-73832.1
1.52154e+06
-577922
52685.5
-167027
-1.0487e+06
1.31471e+06
-1.76393e+06
2.91695e+06
-2.12368e+06
4.2254e+06
-2.18937e+06
4.73487e+06
-2.09572e+06
4.63141e+06
-1.88254e+06
4.42837e+06
-1.30711e+06
4.55123e+06
3.21765e+06
1.90425e+06
6.65813e+06
3.78303e+06
6.45673e+06
1.24671e+07
6.16942e+06
1.25063e+07
6.53683e+06
1.14392e+07
6.72671e+06
9.99215e+06
5.33072e+06
994897
5.45242e+06
-5.10399e+06
7.48463e+06
-1.11504e+07
7.97755e+06
-1.36195e+07
6.78875e+06
-1.33196e+07
4.83104e+06
-1.28019e+07
4.21285e+06
-7.36982e+06
1.56577e+06
9.52369e+06
-548679
1.23258e+07
-2.75676e+06
4.2506e+06
-7.14802e+06
4.65645e+06
-1.85077e+07
7.47405e+06
-1.94667e+07
2.39427e+06
-287264
1.00115e+07
2641.29
34635.7
1.00932e+07
11574.2
-55404.6
1.01662e+07
13002.3
18224.2
1.02302e+07
12712.3
97868.4
1.02851e+07
12350.3
184720
1.03321e+07
12036.5
270400
1.03725e+07
11845.8
357571
1.04073e+07
11845.1
447544
1.04368e+07
11973
542114
1.04582e+07
11926.4
643598
1.0467e+07
11253.1
753028
1.04545e+07
9506.32
872745
1.0414e+07
6269.4
1.00439e+06
1.03409e+07
5173.2
1.14768e+06
1.02392e+07
6432.97
1.30071e+06
1.01219e+07
-1237.09
1.48487e+06
9.94702e+06
5254.36
1.70571e+06
9.68344e+06
1085.14
1.88303e+06
9.78151e+06
27089.7
2.30916e+06
1.00026e+07
41096.3
2.9504e+06
9.89067e+06
34967.4
3.40381e+06
9.39789e+06
-215902
3.44559e+06
8.34128e+06
-169686
2.94658e+06
6.63053e+06
36818.3
2.38814e+06
4.63968e+06
-39978.6
2.0344e+06
2.63842e+06
-52742
1.40857e+06
1.01589e+06
65687.5
1.08337e+06
47295.5
179006
1.93645e+06
-540970
90946.3
3.56201e+06
-817096
6156.31
4.69239e+06
-899616
-6571.91
4.93576e+06
-956889
20567.7
4.64324e+06
-1.18691e+06
81807.3
4.35453e+06
-2.29312e+06
509598
4.37108e+06
-4.18099e+06
1.27881e+06
3.18615e+06
-3.99242e+06
-118158
-342896
-510865
1.28719e+06
-33956.1
831677
613346
6.96216e+06
2.90916e+06
-809182
3.38264e+06
3.86132e+06
-2.07013e+06
-707396
4.35982e+06
-1.98143e+06
-7.21763e+06
4.42517e+06
-670924
-1.07207e+07
4.15962e+06
1.41519e+06
-1.47169e+07
3.77387e+06
471671
-6.49423e+06
1.66121e+06
-693888
-727877
-2.01426e+06
-645291
1.47475e+07
-3.25198e+06
1.51786e+06
1.98842e+07
2.37684e+06
-1.347e+06
1.6441e+07
7.00267e+06
-6.23892e+06
1.27261e+07
1.22882e+07
-5.28871e+06
2.64976e+06
1.77434e+07
-909439
-6.84668e+06
2.14708e+07
1.56928e+06
-1.13057e+07
2.1807e+07
438631
-6.91587e+06
-872724
-1.22041e+07
1.00146e+07
34396.5
1.00914e+07
-56894.6
1.01636e+07
17104.2
1.02275e+07
96813
1.02824e+07
183557
1.03295e+07
269093
1.03699e+07
356111
1.04045e+07
445931
1.04335e+07
540355
1.0454e+07
641689
1.04614e+07
750845
1.04479e+07
870189
1.04067e+07
1.00122e+06
1.0336e+07
1.14206e+06
1.02425e+07
1.29375e+06
1.01193e+07
1.48937e+06
9.91997e+06
1.69128e+06
9.74129e+06
1.88712e+06
9.76598e+06
2.2826e+06
9.88115e+06
2.91569e+06
9.61948e+06
3.42363e+06
8.56308e+06
3.40972e+06
7.22462e+06
3.12026e+06
5.91028e+06
2.23951e+06
3.99022e+06
1.82929e+06
2.10207e+06
1.27324e+06
822564
1.18648e+06
-21661.8
2.34587e+06
-533413
3.52948e+06
-766756
4.47388e+06
-832037
4.79641e+06
-847807
4.66761e+06
-874797
4.52785e+06
-875959
5.0394e+06
-2.01465e+06
4.32774e+06
1.83565e+06
-138414
5.54924e+06
1.01159e+07
6.39596e+06
1.23873e+07
6.5948e+06
1.05913e+07
7.47582e+06
7.26938e+06
6.01987e+06
637486
6.2295e+06
-5.81949e+06
7.97064e+06
-1.12982e+07
8.57872e+06
-1.35804e+07
6.62008e+06
-1.20078e+07
3.71461e+06
-1.07564e+07
3.63467e+06
-6.2978e+06
7.11181e+06
3.95793e+06
7.33201e+06
4.81366e+06
6.14083e+06
-695808
1.16711e+07
-2.55405e+06
2.50871e+07
-4.7935e+06
3.30026e+07
-5.48789e+06
-1.36173e+07
1.00097e+07
2382.37
35131.1
1.0086e+07
9792.92
-65461.8
1.0155e+07
11650.3
12985.8
1.02166e+07
11490.2
97228.7
1.02706e+07
11111.3
189056
1.03186e+07
10738.4
279204
1.03618e+07
10491.2
370403
1.04009e+07
10435.1
464709
1.04364e+07
10502.8
563074
1.04664e+07
10360.5
667724
1.0485e+07
9459.55
780515
1.0484e+07
7324.06
903370
1.04566e+07
3434.88
1.03853e+06
1.04021e+07
493.586
1.18989e+06
1.032e+07
-591.341
1.35585e+06
1.02461e+07
-1497.55
1.55805e+06
1.0149e+07
-2909.65
1.80937e+06
1.00063e+07
11240.8
2.06094e+06
9.99947e+06
32314.7
2.329e+06
1.02323e+07
22604.4
2.77433e+06
1.03275e+07
1901.27
3.38277e+06
9.95165e+06
-46887.5
4.00172e+06
9.09924e+06
-119773
4.04467e+06
7.90349e+06
-97324.2
3.75493e+06
6.4204e+06
-112588
3.64014e+06
4.78884e+06
-85801.7
3.12668e+06
3.21291e+06
113423
2.53766e+06
2.03141e+06
267053
2.84022e+06
1.29599e+06
128775
4.18564e+06
880503
3207.08
5.13231e+06
766811
-16632.7
5.07854e+06
733705
-11642.6
4.68532e+06
861061
217.119
4.21668e+06
563760
309006
4.31977e+06
-667676
1.46786e+06
2.94007e+06
-11486.2
1.04153e+06
-1.9588e+06
-223428
249293
68828.9
2.41605e+06
-22427.4
4.54218e+06
4.76918e+06
-1.2595e+06
2.55682e+06
6.2695e+06
-1.64589e+06
-323514
6.74378e+06
-1.92264e+06
-5.48513e+06
5.61925e+06
-297905
-8.9964e+06
2.5392e+06
1.98136e+06
-1.28981e+07
3.78812e+06
2.05157e+06
-8.8145e+06
471389
297193
2.45646e+06
-1.63114e+06
212020
1.64572e+07
-1.5226e+06
921106
1.81513e+07
486742
-273157
1.26838e+07
6.76005e+06
-7.06682e+06
9.6642e+06
1.0184e+07
-5.14394e+06
2.14383e+06
4.02907e+06
-733253
-1.99509e+06
-8.84494e+06
2.77746e+06
-2.63857e+06
-1.12938e+07
-4.00725e+06
-1.37774e+06
1.64262e+06
1.44333e+06
1.00125e+07
35271.8
1.00849e+07
-64747
1.01529e+07
12689.6
1.02141e+07
96642.2
1.02681e+07
188398
1.03161e+07
278516
1.03593e+07
369706
1.03982e+07
464033
1.04332e+07
562441
1.04622e+07
667164
1.04791e+07
779974
1.04766e+07
902710
1.04485e+07
1.03778e+06
1.03933e+07
1.18741e+06
1.03217e+07
1.35201e+06
1.02452e+07
1.55718e+06
1.01373e+07
1.80796e+06
1.00156e+07
2.04379e+06
1.00587e+07
2.30758e+06
1.0299e+07
2.73952e+06
1.03535e+07
3.4333e+06
9.72987e+06
4.06394e+06
8.63065e+06
4.17703e+06
7.33435e+06
3.46854e+06
5.74929e+06
3.31057e+06
4.09483e+06
2.82849e+06
2.76026e+06
2.59762e+06
1.92735e+06
3.44219e+06
1.35093e+06
4.2427e+06
999287
4.83905e+06
840306
4.93954e+06
768990
4.71742e+06
511218
4.74453e+06
587573
5.23076e+06
1.69191e+06
4.72247e+06
3.36309e+06
-675143
4.81761e+06
8.96419e+06
6.66896e+06
1.05982e+07
7.52791e+06
8.63671e+06
8.13393e+06
5.20023e+06
7.36862e+06
-319797
7.24186e+06
-5.78275e+06
8.49163e+06
-1.03695e+07
1.03321e+07
-1.3191e+07
9.44753e+06
-1.07758e+07
6.99567e+06
-8.3308e+06
7.017e+06
-5.93158e+06
1.21995e+07
-2.14635e+06
1.13283e+07
-2.31566e+06
8.01814e+06
-3.64563e+06
8.36662e+06
-4.71819e+06
1.14293e+07
-6.33842e+06
565765
178450
6.1829e+06
1.00098e+07
2401.73
37251.8
1.00794e+07
10207.5
-70601.3
1.01435e+07
11365.7
8773.41
1.0202e+07
11036.3
95741.5
1.02547e+07
10681.3
191243
1.0303e+07
10398
284688
1.0348e+07
10266.2
379028
1.03909e+07
10348.4
476140
1.04319e+07
10557.4
577340
1.0469e+07
10554.3
684173
1.04967e+07
9725.9
798543
1.05059e+07
7526.31
923178
1.04897e+07
3638.62
1.05967e+06
1.04486e+07
-620.019
1.2123e+06
1.03912e+07
-1811
1.38334e+06
1.03436e+07
-2078.09
1.58133e+06
1.03224e+07
-3402.66
1.82506e+06
1.02965e+07
4492.05
2.09969e+06
1.02825e+07
20565.2
2.34238e+06
1.04457e+07
15798.9
2.63167e+06
1.07652e+07
7850.24
3.0941e+06
1.09352e+07
32925.2
3.85007e+06
1.05264e+07
-34874.5
4.53445e+06
9.86487e+06
-312706
4.73464e+06
9.0768e+06
-408645
4.81958e+06
7.87881e+06
-223244
4.51911e+06
5.67655e+06
289108
4.38099e+06
3.14131e+06
747141
4.62155e+06
1.93997e+06
439045
5.00242e+06
1.90177e+06
-84288.8
5.30785e+06
2.15077e+06
-260536
5.098e+06
2.37694e+06
-266096
4.71525e+06
2.43566e+06
-113859
4.23721e+06
2.91729e+06
-146223
3.95949e+06
3.0047e+06
102992
2.82723e+06
288550
1.72053e+06
-829642
-1.06534e+06
-85772.9
1.62282e+06
2.24671e+06
-1.00381e+06
2.38748e+06
4.87311e+06
-932442
1.03808e+06
7.61504e+06
-1.32799e+06
-1.56175e+06
8.86301e+06
-1.53585e+06
-4.97763e+06
7.64555e+06
-81848.8
-7.36375e+06
3.25961e+06
2.46316e+06
-1.06003e+07
3.24336e+06
3.67856e+06
-1.16479e+07
586651
1.47527e+06
3.76248e+06
-6877.44
1.02271e+06
1.5823e+07
1.42276e+06
431732
1.5644e+07
2.37442e+06
-791499
1.144e+07
4.74579e+06
-2.74442e+06
7.98238e+06
6.20758e+06
-6.12963e+06
3.87439e+06
5.36007e+06
-5.91993e+06
2.44403e+06
-1.80887e+06
-2.57941e+06
4.85194e+06
-6.02966e+06
-3.21054e+06
4.34415e+06
-115661
-3.84929e+06
1.00126e+07
36969.8
1.00777e+07
-72318.3
1.01412e+07
7442.5
1.01996e+07
94478.6
1.02523e+07
189863
1.03006e+07
283154
1.03456e+07
377326
1.03884e+07
474269
1.04289e+07
575301
1.04649e+07
681968
1.04908e+07
796155
1.04982e+07
920470
1.0481e+07
1.05681e+06
1.04402e+07
1.20863e+06
1.03869e+07
1.37738e+06
1.03452e+07
1.57557e+06
1.03182e+07
1.82524e+06
1.02774e+07
2.0922e+06
1.02987e+07
2.32096e+06
1.04989e+07
2.57189e+06
1.08847e+07
3.07744e+06
1.10979e+07
3.90279e+06
1.05618e+07
4.68325e+06
8.88775e+06
4.81019e+06
7.14227e+06
4.57496e+06
5.14137e+06
4.53126e+06
3.37528e+06
4.59031e+06
3.07796e+06
4.46375e+06
2.93247e+06
4.82028e+06
2.46259e+06
5.21487e+06
1.90135e+06
5.21625e+06
1.38847e+06
4.90741e+06
1.34939e+06
4.61795e+06
1.48386e+06
4.94364e+06
1.11839e+06
5.20818e+06
-121837
2.30163e+06
2.35443e+06
6.41482e+06
4.75645e+06
7.24678e+06
6.92507e+06
5.63622e+06
8.53556e+06
2.40353e+06
8.66523e+06
-1.80717e+06
8.46257e+06
-5.47402e+06
9.25057e+06
-8.50027e+06
1.16728e+07
-1.17585e+07
1.20573e+07
-9.64766e+06
1.15268e+07
-6.97141e+06
1.09758e+07
-5.43142e+06
1.13614e+07
-4.10114e+06
8.73216e+06
-3.60566e+06
1.88566e+06
-4.54724e+06
-5.36157e+06
-5.62605e+06
-1.42881e+07
-1.83505e+06
-2.44203e+07
6.04243e+06
-1.15929e+06
1.00078e+07
2096.63
36163.5
1.00713e+07
8208.61
-78999.8
1.01306e+07
9823.52
2269.05
1.01857e+07
9649.72
90779.3
1.02367e+07
9295.5
188089
1.02848e+07
8967.63
282983
1.03311e+07
8785.71
378537
1.0377e+07
8814.62
476581
1.04226e+07
8960.37
578343
1.0466e+07
8878.85
685239
1.05013e+07
7950.78
799163
1.05202e+07
5557.01
922812
1.05153e+07
1620.37
1.05833e+06
1.04871e+07
-3071.45
1.2092e+06
1.04473e+07
-5324.44
1.37848e+06
1.04158e+07
-5582.04
1.56775e+06
1.04328e+07
-3596.75
1.79104e+06
1.04771e+07
-3161.76
2.04708e+06
1.05198e+07
8044.15
2.30324e+06
1.06049e+07
9906.44
2.53806e+06
1.0889e+07
-67.7442
2.81043e+06
1.13302e+07
4510.52
3.37502e+06
1.17003e+07
927.624
4.11756e+06
1.15518e+07
-81460.9
4.86314e+06
1.11073e+07
-284929
5.43017e+06
1.00392e+07
-179192
5.67799e+06
8.44043e+06
-113948
6.01252e+06
7.07812e+06
12923.7
5.91913e+06
5.86324e+06
347506
5.83772e+06
4.9437e+06
380721
5.81589e+06
4.28783e+06
108773
5.60654e+06
3.9854e+06
-212875
5.1691e+06
4.06562e+06
-330283
4.46744e+06
4.71578e+06
-618948
3.94446e+06
5.1673e+06
-715935
3.10036e+06
2.58309e+06
-87043.3
1.83394e+06
2.39824e+06
-523882
2.32974e+06
4.73482e+06
-1.05368e+06
1.15728e+06
7.58355e+06
-1.01779e+06
-680574
9.94994e+06
-945700
-2.8131e+06
1.11879e+07
-988241
-4.98226e+06
1.04854e+07
-212516
-6.15271e+06
6.2153e+06
1.93471e+06
-7.73191e+06
3.06883e+06
4.59245e+06
-1.24004e+07
1.85675e+06
2.88139e+06
2.24287e+06
2.29169e+06
2.073e+06
1.3139e+07
3.47318e+06
577770
1.33062e+07
4.46876e+06
-1.12046e+06
1.0557e+07
5.7082e+06
-3.89375e+06
9.10275e+06
7.82676e+06
-8.0832e+06
7.74685e+06
8.67422e+06
-8.44429e+06
7.86348e+06
6.75917e+06
-2.99003e+06
8.39438e+06
4.64507e+06
275208
5.44917e+06
4.56429e+06
1.28943e+07
1.00102e+07
36334.5
1.00703e+07
-78144.4
1.01287e+07
2033.18
1.01836e+07
90212.5
1.02345e+07
187425
1.02826e+07
282262
1.03289e+07
377775
1.03746e+07
475796
1.04196e+07
577553
1.04618e+07
684458
1.04953e+07
798384
1.05122e+07
921955
1.0506e+07
1.05732e+06
1.04779e+07
1.20785e+06
1.04393e+07
1.37519e+06
1.04159e+07
1.56351e+06
1.043e+07
1.78828e+06
1.04649e+07
2.05017e+06
1.04975e+07
2.29728e+06
1.05876e+07
2.49258e+06
1.09122e+07
2.74062e+06
1.14875e+07
3.30591e+06
1.19503e+07
4.15978e+06
1.15987e+07
5.00218e+06
1.02214e+07
5.57922e+06
8.55078e+06
5.94938e+06
6.78733e+06
6.17705e+06
5.2287e+06
5.99428e+06
4.63206e+06
5.74024e+06
4.59402e+06
5.61216e+06
4.39758e+06
5.48294e+06
3.89536e+06
5.16538e+06
3.54803e+06
4.62702e+06
3.3491e+06
4.52352e+06
3.13321e+06
4.7058e+06
1.60668e+06
3.73184e+06
3.03075e+06
4.47821e+06
5.22339e+06
4.05442e+06
7.80971e+06
2.12982e+06
9.88765e+06
-483516
1.06138e+07
-3.34968e+06
1.06036e+07
-5.48466e+06
1.09096e+07
-6.67937e+06
1.29372e+07
-9.04259e+06
1.42287e+07
-8.03294e+06
1.54248e+07
-6.27234e+06
1.5368e+07
-5.24043e+06
1.31721e+07
-3.81775e+06
5.86388e+06
-1.59097e+06
-9.17811e+06
264242
-2.39898e+07
-1.1528e+06
-2.99945e+07
-71462.6
-3.18327e+07
7.33951e+06
-2.34087e+06
1.00079e+07
2129.44
37225.7
1.00642e+07
8785.82
-81156.2
1.01181e+07
9683.39
-1832.19
1.01695e+07
9346.35
86530.4
1.02182e+07
9027.34
184573
1.02655e+07
8798.15
279958
1.03123e+07
8732.52
376130
1.03601e+07
8883.89
474171
1.04093e+07
9155.66
575531
1.04574e+07
9196.44
681969
1.0499e+07
8382.15
794796
1.0526e+07
6067.19
916161
1.05312e+07
2183.7
1.04906e+06
1.05148e+07
-2545.84
1.19567e+06
1.0487e+07
-5892.86
1.35986e+06
1.04691e+07
-5874.09
1.54094e+06
1.04906e+07
-3916.63
1.74156e+06
1.05666e+07
-2638.61
1.96515e+06
1.06712e+07
1501.42
2.20636e+06
1.07797e+07