/*--------------------------------*- C++ -*----------------------------------*\
| =========                 |                                                 |
| \\      /  F ield         | OpenFOAM: The Open Source CFD Toolbox           |
|  \\    /   O peration     | Version:  4.1                                   |
|   \\  /    A nd           | Web:      www.OpenFOAM.org                      |
|    \\/     M anipulation  |                                                 |
\*---------------------------------------------------------------------------*/
FoamFile
{
    version     2.0;
    format      ascii;
    class       volVectorField;
    location    "18";
    object      U;
}
// * * * * * * * * * * * * * * * * * * * * * * * * * * * * * * * * * * * * * //

dimensions      [0 1 -1 0 0 0 0];

internalField   nonuniform List<vector> 
4432
(
(39.9524 0.00194888 0.0756317)
(40.0738 0.0262992 0.101706)
(40.2492 0.0387234 0.199566)
(40.2974 0.0449557 0.311933)
(40.1743 0.0506115 0.442568)
(39.8765 0.0562165 0.589961)
(39.385 0.0615027 0.753048)
(38.6801 0.0664266 0.928681)
(37.7453 0.0706921 1.11191)
(36.5618 0.0740238 1.29345)
(35.1253 0.0766227 1.46032)
(33.4499 0.0757456 1.59626)
(31.6147 0.0828472 1.65616)
(29.7905 0.100336 1.6591)
(27.8593 0.0846545 1.46271)
(26.6941 0.0628287 1.27005)
(25.1742 0.101053 1.21108)
(24.6017 0.193251 0.681549)
(23.1605 0.145329 0.238255)
(25.4735 0.257845 -0.903664)
(26.8236 0.149313 -1.53024)
(26.7047 0.565151 -0.470139)
(30.0358 0.632687 -0.925351)
(36.196 0.0332277 -4.47338)
(44.2648 -0.319846 -8.68898)
(53.2326 0.045869 -10.6726)
(61.7525 0.29813 -10.0808)
(68.5233 0.0167123 -7.08288)
(70.7423 0.155043 -2.82274)
(68.2672 0.551846 1.75376)
(62.602 0.770508 5.6128)
(55.6085 0.662702 7.9059)
(46.9972 0.218423 7.66879)
(36.0709 -0.188287 7.05758)
(17.0156 -0.695561 7.61221)
(-7.00435 2.20629 7.47778)
(-3.03292 -0.58432 15.4404)
(-20.8188 4.22207 9.5809)
(-25.9341 4.83332 2.35787)
(-29.1374 4.64432 -9.48595)
(-19.2936 3.79296 -19.4439)
(-11.2193 4.7112 -23.2708)
(2.28467 3.33893 -22.4553)
(14.8033 -3.18286 -16.0798)
(24.3843 -6.88066 -7.95126)
(28.5989 -9.52967 -2.44726)
(30.5321 -7.96293 1.52911)
(34.9489 -5.31151 8.78305)
(26.6902 -1.21176 7.0485)
(-7.683 -3.4748 30.4455)
(-65.4309 -24.9262 30.5715)
(88.7313 -31.8914 -62.2867)
(121.338 -22.5307 -68.7812)
(200.621 -9.62171 -84.0454)
(39.9523 0.00194623 0.0760007)
(40.0829 0.026307 0.102832)
(40.2412 0.038793 0.201335)
(40.2848 0.0451276 0.313929)
(40.1607 0.0509027 0.444439)
(39.8623 0.056639 0.591438)
(39.3701 0.0620769 0.753572)
(38.6657 0.0671672 0.927643)
(37.7319 0.0716396 1.10866)
(36.5518 0.0752307 1.28765)
(35.1224 0.0781127 1.44927)
(33.4657 0.0776604 1.5769)
(31.6417 0.0851606 1.64546)
(29.8064 0.104329 1.62293)
(27.9664 0.0906565 1.47417)
(26.5073 0.0589001 1.24944)
(24.8858 0.100651 1.0464)
(24.1388 0.206373 0.607527)
(23.2628 0.165721 0.0890154)
(25.5993 0.234127 -1.22943)
(27.8649 0.095202 -2.21913)
(27.9841 0.406717 -2.08071)
(29.2725 0.574614 -1.59064)
(34.4664 0.00872 -2.8068)
(43.6222 -0.45157 -5.73536)
(53.8583 -0.151904 -7.90255)
(63.1422 0.0256923 -7.02828)
(70.2352 -0.427233 -3.50623)
(72.5502 -0.377454 0.479187)
(70.233 -0.0330077 3.8351)
(64.4025 0.307891 5.65812)
(56.9947 0.530659 7.169)
(48.1587 1.10361 7.66407)
(38.1254 -0.0476991 7.70632)
(27.5774 -0.583724 5.3269)
(11.5974 -2.74336 0.609273)
(9.9481 6.84954 10.2175)
(-18.728 0.765919 12.4942)
(-36.7294 3.77324 7.68568)
(-33.957 6.81129 1.91945)
(-36.1395 9.78872 0.396322)
(-32.6596 9.78817 -1.46255)
(-11.7506 4.26315 -0.641627)
(4.28897 -2.59838 0.857765)
(15.2352 -7.66214 3.48466)
(26.5196 -10.5212 3.17247)
(38.9191 -10.6517 5.51689)
(39.0511 -9.86508 20.322)
(31.9162 -8.97263 20.9506)
(-3.88036 -8.0096 22.459)
(-59.6442 -8.93742 26.4708)
(-14.3052 -17.5504 -78.8178)
(-6.18486 -11.7162 -88.3125)
(129.526 -1.40747 -139.327)
(40.0485 0.00215011 0.0647998)
(40.3958 0.0278344 0.00652558)
(40.8838 0.0411763 0.14855)
(41.3975 0.0480374 0.306414)
(41.9146 0.0543321 0.487333)
(42.4496 0.0607721 0.688824)
(42.9999 0.067038 0.917451)
(43.5542 0.0731858 1.17774)
(44.0913 0.0787538 1.47224)
(44.5724 0.0836681 1.80085)
(44.9482 0.0883481 2.15709)
(45.1551 0.0907511 2.51414)
(45.1793 0.101509 2.83467)
(44.936 0.105023 3.03836)
(44.6363 0.149075 3.25501)
(43.55 0.137895 3.10462)
(43.0686 0.154227 2.77977)
(41.8766 0.163185 2.94428)
(41.0121 0.173316 2.16501)
(38.725 0.169202 0.739838)
(35.4135 0.238157 0.205533)
(33.9532 0.199012 -1.09309)
(35.6539 -0.0411052 -5.69717)
(39.4824 -0.183224 -11.4882)
(43.6344 -0.0356065 -14.5506)
(47.9013 0.241125 -13.4344)
(52.0754 0.463189 -9.18604)
(56.142 0.53729 -3.29229)
(59.1098 0.665253 3.25055)
(59.561 0.4434 7.98013)
(58.2833 0.235563 9.73009)
(54.0176 0.213272 9.92838)
(49.3704 -0.470268 12.4396)
(44.1714 -1.5651 17.017)
(32.101 1.0438 26.4631)
(23.1455 10.7791 31.0056)
(7.99331 5.95637 27.2888)
(-23.981 1.91802 17.2136)
(-10.8042 2.60423 5.53932)
(-7.54248 4.07408 -10.6152)
(-0.953745 1.85984 -22.3969)
(2.94636 0.238799 -24.0637)
(9.37546 -1.11797 -18.0859)
(17.0447 -3.80637 -8.59873)
(24.1054 -8.90829 -0.413212)
(27.6313 -15.1945 9.24485)
(28.7643 -17.2918 18.9857)
(47.1868 -14.2973 16.9821)
(23.8415 -17.4945 27.6158)
(-30.0818 -14.7217 39.3744)
(21.1513 -20.6855 56.4475)
(-103.91 -15.2686 -70.559)
(-181.417 -14.3103 -66.3325)
(-92.0056 -2.51778 -62.7199)
(40.0478 0.00214657 0.0652888)
(40.4057 0.0278356 0.00821637)
(40.8771 0.0412496 0.150084)
(41.3873 0.0482212 0.308122)
(41.9055 0.054647 0.489106)
(42.4415 0.0612338 0.690459)
(42.9921 0.0676613 0.918576)
(43.5448 0.073986 1.17797)
(44.0801 0.0797238 1.47038)
(44.5556 0.0848904 1.79759)
(44.9295 0.0897207 2.14638)
(45.1373 0.0923609 2.50318)
(45.1513 0.10254 2.81147)
(44.9625 0.11079 3.03641)
(44.5098 0.145065 3.1378)
(44.0028 0.131812 2.94331)
(43.3633 0.172664 2.93265)
(42.2453 0.187223 2.54488)
(41.1858 0.177291 1.82353)
(39.2441 0.182471 0.343945)
(35.7238 0.242933 -0.889875)
(33.8257 0.19144 -1.73319)
(35.5531 -0.0568321 -4.34599)
(39.9176 -0.200259 -8.84922)
(44.6129 -0.0686006 -12.5188)
(49.226 0.138503 -12.404)
(54.7206 0.513732 -9.16374)
(60.4947 0.708545 -3.51774)
(65.3763 0.705564 2.75438)
(68.0319 0.352959 6.79398)
(66.6742 -0.303304 9.08267)
(62.2572 -0.0940791 10.1278)
(56.9272 0.00770081 12.666)
(49.5358 -1.20224 15.291)
(38.1791 -0.326183 15.877)
(19.8682 4.13644 13.764)
(17.9229 13.6459 21.5072)
(4.42837 9.59244 28.2871)
(-13.0666 8.30423 18.5865)
(-30.8177 10.3746 7.55963)
(-23.3469 5.41087 10.953)
(-7.57552 2.98714 -2.99525)
(6.32426 0.101386 -9.79241)
(19.71 -1.597 -14.3887)
(28.999 -1.86825 -15.5684)
(44.7805 -0.763101 -21.5752)
(59.1364 -2.68705 -17.6238)
(64.9832 -4.84296 -0.306517)
(90.1747 -5.42868 6.13518)
(46.571 -9.81302 17.9629)
(64.6607 -10.26 29.2555)
(-125.144 -5.75086 -88.2966)
(-212.057 -7.40292 -89.3637)
(-127.584 -0.0978786 -77.3758)
(40.0058 0.00227037 0.071743)
(40.256 0.0281293 -0.0675108)
(40.5937 0.0406636 0.0681059)
(40.9029 0.047122 0.208841)
(41.1573 0.0531192 0.363872)
(41.3761 0.059193 0.525097)
(41.5713 0.0650122 0.703593)
(41.7595 0.0704621 0.908286)
(41.9617 0.0753033 1.14865)
(42.1958 0.078793 1.43473)
(42.4792 0.0818562 1.77453)
(42.8096 0.0822817 2.1653)
(43.2133 0.085612 2.59145)
(43.6295 0.0986386 2.96794)
(44.1268 0.118525 3.38957)
(44.526 0.110114 3.4845)
(45.4705 0.166421 3.95431)
(44.1682 0.0970955 4.76141)
(41.544 0.118052 4.78316)
(37.5542 0.111297 4.06673)
(33.522 0.110891 2.16745)
(31.6212 0.0732551 -1.74301)
(32.3968 -0.0894976 -7.33144)
(34.0302 -0.242381 -12.511)
(35.2814 -0.167266 -15.5242)
(36.7445 0.091844 -16.4222)
(38.7891 0.419776 -15.3452)
(40.2544 0.673642 -11.4329)
(39.8958 0.7415 -4.78657)
(37.8669 0.268378 3.70888)
(35.5538 0.296746 10.607)
(30.5716 0.674555 15.2666)
(26.4169 0.517625 19.5692)
(24.4831 0.102222 25.48)
(19.5604 2.35932 32.6532)
(23.3971 9.48061 43.8388)
(5.89644 7.00985 35.0092)
(-2.33885 2.29975 23.1258)
(0.216851 0.407618 9.25475)
(0.681876 2.06739 -12.8598)
(5.58568 0.507939 -27.9789)
(6.90224 -0.968424 -30.2992)
(11.2598 -2.13773 -21.2015)
(23.6853 -3.39726 -10.3778)
(30.0179 -6.35445 2.63083)
(39.3618 -7.34279 9.21918)
(59.3534 -5.35084 -2.16214)
(36.8671 -17.5138 38.6977)
(-4.9996 -23.6518 72.3488)
(-19.958 -21.0609 90.176)
(53.2978 -16.7227 108.94)
(104.902 -23.3728 87.7851)
(116.758 -34.6986 52.1711)
(40.9058 -23.7146 -11.8216)
(40.0051 0.00226663 0.0717655)
(40.2652 0.0281306 -0.0682941)
(40.5855 0.0407388 0.0669832)
(40.8908 0.0473062 0.207733)
(41.1455 0.053433 0.362857)
(41.3645 0.0596545 0.524243)
(41.5597 0.065638 0.703091)
(41.7475 0.0712661 0.908091)
(41.9485 0.0762998 1.14923)
(42.181 0.0800109 1.43575)
(42.4612 0.083329 1.77577)
(42.7953 0.0837807 2.16513)
(43.1936 0.0866291 2.57286)
(43.635 0.103587 3.00115)
(44.134 0.12316 3.36914)
(44.551 0.110249 3.42215)
(45.2138 0.153194 3.91741)
(44.2614 0.0912894 4.62682)
(41.9195 0.125274 4.69197)
(37.8094 0.117509 3.85845)
(33.8128 0.118184 1.91087)
(31.8328 0.0793014 -1.78588)
(32.4714 -0.0910252 -6.7772)
(34.0337 -0.244854 -11.3849)
(35.6551 -0.177225 -14.6454)
(37.5636 0.0943872 -16.1786)
(40.4839 0.531772 -15.8023)
(43.5439 0.863533 -12.1117)
(45.6514 0.985871 -5.58977)
(45.5266 0.224062 1.2031)
(41.6915 0.0225491 8.08062)
(37.0635 0.649979 14.5162)
(34.9344 0.606498 19.7472)
(33.3596 -0.766759 24.1768)
(27.7476 0.181274 25.8679)
(19.5405 10.046 28.2381)
(22.12 14.8914 34.0649)
(20.0585 11.4859 39.9118)
(16.3126 9.82873 39.373)
(-11.1836 6.68876 32.9361)
(1.3948 2.29916 1.36914)
(3.3819 0.294325 -14.2823)
(13.2704 -0.621425 -20.5404)
(26.8877 0.681433 -30.4228)
(38.1675 3.08588 -38.3194)
(53.8627 7.90251 -54.7212)
(74.2952 6.21932 -52.2394)
(78.6088 3.62318 -18.7444)
(83.895 5.05728 -1.59815)
(7.67278 -12.0344 84.2424)
(53.0104 -9.90859 90.6164)
(93.8498 -20.8527 75.9659)
(-28.4839 -47.8706 28.1715)
(-404.746 6.84098 13.3258)
(40.0047 0.00216588 0.0874647)
(40.2412 0.0264561 -0.100588)
(40.5748 0.0394168 0.0905713)
(40.877 0.0460031 0.295387)
(41.1201 0.0519583 0.519886)
(41.3147 0.0579071 0.745735)
(41.4615 0.0635867 0.979261)
(41.562 0.068867 1.22207)
(41.6201 0.0735579 1.47583)
(41.6364 0.0768328 1.74286)
(41.6169 0.0793536 2.02708)
(41.56 0.0787483 2.33222)
(41.5165 0.0779459 2.65349)
(41.51 0.0995236 2.97156)
(41.6157 0.0772815 3.37281)
(42.0067 0.102739 3.50897)
(42.5542 0.141429 4.43881)
(43.6235 0.147798 7.70192)
(42.1143 0.119361 8.9704)
(37.9843 0.133272 7.89261)
(33.858 0.102916 4.81873)
(31.3806 -0.0083533 -0.626816)
(30.226 -0.202726 -6.94852)
(28.6091 -0.253209 -12.2707)
(26.5263 -0.166801 -15.7224)
(24.9172 0.0752343 -17.8383)
(23.1866 0.386095 -16.4285)
(20.2105 0.422388 -9.22217)
(16.0682 0.328343 0.529502)
(10.3483 0.40385 9.6063)
(4.68164 0.630657 16.179)
(1.04773 0.777288 19.1754)
(-0.319691 1.03558 20.6913)
(1.69119 1.51023 22.3018)
(6.09025 2.28065 25.7557)
(12.6716 4.33982 34.9288)
(10.9689 3.23658 36.6651)
(1.5098 -7.68802 21.2469)
(7.67808 0.535913 9.78888)
(5.69453 -0.353109 -14.0791)
(8.31146 0.0641738 -29.1015)
(10.5561 -1.2185 -33.2871)
(14.3956 -1.73757 -28.4903)
(24.3287 -4.57683 -17.3949)
(33.0177 -6.49565 -5.4839)
(45.4786 -3.65655 -5.53512)
(40.8613 -9.26957 23.7201)
(-18.3062 -23.018 91.3202)
(-26.2915 -16.2088 69.3244)
(-36.8569 -9.41722 37.3484)
(6.21781 -5.63869 34.6116)
(72.1926 -13.9199 14.225)
(137.859 -19.8496 29.1841)
(184.868 -12.6078 3.55284)
(40.0042 0.00216252 0.0873634)
(40.2508 0.0264596 -0.10128)
(40.5679 0.0394882 0.0892436)
(40.8657 0.0461779 0.293888)
(41.1087 0.0522574 0.518281)
(41.3035 0.0583478 0.744057)
(41.45 0.0641846 0.977552)
(41.5498 0.069636 1.22039)
(41.6062 0.0745101 1.47439)
(41.6205 0.0779909 1.74181)
(41.5973 0.0806767 2.02676)
(41.5427 0.0806032 2.32996)
(41.4972 0.0786429 2.64446)
(41.4821 0.101747 2.98975)
(41.6993 0.0891113 3.35486)
(41.9222 0.097194 3.48503)
(42.3963 0.130645 4.18925)
(43.4341 0.162083 7.43102)
(42.5254 0.124669 8.8729)
(38.4422 0.138996 7.73165)
(34.4521 0.113909 4.65593)
(31.9247 -0.00244098 -0.584747)
(30.2411 -0.225152 -6.66241)
(28.1482 -0.25343 -11.8252)
(26.1777 -0.159798 -15.3364)
(24.5128 0.0994553 -17.4955)
(22.7411 0.44312 -15.7166)
(20.2022 0.50586 -8.70737)
(16.8535 0.400193 0.613278)
(11.9444 0.434218 8.94067)
(6.763 0.635489 15.4445)
(4.24754 0.789086 19.3129)
(4.27858 0.938909 22.1924)
(8.55009 1.09393 25.036)
(14.7411 2.26192 28.1002)
(18.4257 9.87274 36.4019)
(24.4961 12.9112 37.8897)
(24.4719 13.8032 38.4016)
(21.3721 7.61856 39.5282)
(4.72748 5.4421 35.6953)
(14.8824 2.44558 -5.03077)
(14.6802 1.77041 -19.1126)
(17.5543 3.30771 -30.4816)
(30.8329 6.91555 -47.0669)
(40.0294 9.12807 -56.0678)
(43.3203 14.9788 -65.9777)
(54.2632 12.0805 -47.1546)
(42.6852 7.8601 9.1171)
(-12.5449 3.16556 54.1847)
(-21.061 1.58352 24.8973)
(-1.85367 -0.187295 36.983)
(31.2955 -9.43632 -0.845787)
(70.9202 -11.9726 10.7504)
(155.597 -5.94339 -6.63254)
(40.0052 0.00217866 0.105388)
(40.2332 0.0266335 -0.132757)
(40.5558 0.0384935 0.098174)
(40.8534 0.0446408 0.344564)
(41.0993 0.0504012 0.61338)
(41.3043 0.0562233 0.881763)
(41.4685 0.0617827 1.15906)
(41.592 0.0669582 1.44878)
(41.6742 0.0715699 1.7544)
(41.7071 0.0748144 2.07847)
(41.6782 0.0771337 2.42302)
(41.5576 0.0756946 2.78432)
(41.356 0.0749889 3.15199)
(41.0569 0.0886213 3.50985)
(40.7129 0.0801641 3.84398)
(40.4552 0.087517 4.12049)
(40.0014 0.159787 4.138)
(40.6097 0.116889 6.27873)
(44.0754 0.0614723 11.5542)
(41.7482 0.170647 11.6928)
(37.981 0.0576185 8.23675)
(34.4202 -0.180961 2.47971)
(30.5958 -0.245498 -3.09682)
(25.7778 -0.251729 -7.64738)
(20.4693 -0.197869 -11.1272)
(15.3839 0.0122053 -13.7008)
(9.30473 0.256046 -11.3448)
(3.27153 0.260585 -2.57163)
(-2.29097 0.136653 7.44088)
(-7.08473 0.199634 15.3424)
(-9.7805 0.263688 18.9594)
(-10.5481 0.29973 19.074)
(-10.0876 0.502897 18.0913)
(-8.11188 0.85884 17.7305)
(-4.524 0.70522 19.2599)
(0.974109 0.0927339 25.6469)
(10.461 -1.69085 34.9624)
(3.62314 -6.43908 27.2086)
(7.43885 -4.3678 16.3001)
(7.26807 -1.63779 -15.5407)
(7.64833 -0.42214 -33.7115)
(9.20562 -1.59199 -44.3543)
(17.7386 -0.437128 -41.6185)
(26.7812 -3.47441 -38.6347)
(32.5448 -5.64028 -25.4294)
(35.345 -4.82407 2.32235)
(6.33601 -13.5082 67.3873)
(-32.2419 -20.2754 100.318)
(-26.093 -8.07868 60.7125)
(-19.3802 -8.26994 6.87013)
(-15.9431 -5.10781 -8.4405)
(35.2876 -19.5342 -24.4174)
(70.5059 -6.42477 15.5371)
(7.19865 8.00282 -43.6289)
(40.0046 0.00217602 0.105164)
(40.2417 0.0266355 -0.134371)
(40.5478 0.0385637 0.0958253)
(40.8418 0.0448116 0.341949)
(41.088 0.0506894 0.610508)
(41.2932 0.056644 0.87861)
(41.4572 0.0623492 1.15563)
(41.5802 0.0676819 1.44513)
(41.6608 0.0724618 1.7506)
(41.6915 0.0758939 2.07468)
(41.6579 0.0783162 2.41914)
(41.539 0.0777662 2.77845)
(41.3343 0.0751204 3.14468)
(41.0339 0.0904194 3.49205)
(40.7903 0.0929499 3.85491)
(40.4728 0.0831033 4.14664)
(39.8834 0.146649 4.23796)
(40.8376 0.156955 6.76741)
(43.7439 0.00938493 11.0359)
(42.3308 0.195036 11.6526)
(38.8646 0.131055 8.62349)
(35.0122 -0.150917 3.22099)
(30.3023 -0.282967 -2.58551)
(24.939 -0.257191 -7.34129)
(19.5463 -0.199436 -10.9954)
(13.6865 -0.000507437 -12.9925)
(7.29131 0.225931 -9.58981)
(2.1012 0.249355 -1.47955)
(-2.70514 0.136094 7.57279)
(-6.78874 0.204137 14.9759)
(-9.04852 0.275352 18.5608)
(-9.37785 0.299865 19.1082)
(-8.1281 0.481313 19.2123)
(-4.83801 0.954266 21.479)
(1.43875 1.20075 27.3942)
(13.9574 8.25592 30.2772)
(25.3216 12.2851 39.8461)
(25.1665 15.7331 42.3046)
(23.2857 10.4502 44.9259)
(20.6437 6.18846 38.458)
(21.441 1.40248 -3.18986)
(19.5615 1.40298 -22.6509)
(21.7493 5.92261 -39.1133)
(32.36 10.593 -54.5661)
(34.4106 9.26829 -56.3877)
(26.8601 12.825 -60.2709)
(32.7558 16.7983 -38.4668)
(22.1271 10.7132 31.6982)
(-21.2464 6.32229 63.4644)
(-30.6409 3.6564 12.732)
(-2.1731 2.33622 24.7593)
(-32.2647 -7.40341 -44.4143)
(-147.623 7.12294 -34.8054)
(-79.9124 5.40811 -45.5095)
(40.0038 0.00196833 0.119623)
(40.2165 0.0238426 -0.170029)
(40.5269 0.0360648 0.0926077)
(40.816 0.0422441 0.373073)
(41.0604 0.0477895 0.678664)
(41.27 0.0532694 0.981195)
(41.4452 0.0584717 1.29173)
(41.5874 0.0633194 1.61498)
(41.6976 0.0676109 1.95686)
(41.7704 0.0706484 2.32375)
(41.7918 0.0723086 2.7229)
(41.729 0.070265 3.15476)
(41.5622 0.0671906 3.62005)
(41.2621 0.070983 4.0893)
(40.8011 0.0752231 4.54126)
(40.2814 0.0399536 5.06866)
(39.6156 0.0908772 5.394)
(38.3768 -0.0556081 5.66967)
(42.3859 -0.0696353 10.3327)
(43.1344 0.164608 13.4467)
(42.7102 0.180716 12.2552)
(38.731 -0.187303 7.41826)
(33.0443 -0.278181 2.69198)
(26.4605 -0.191672 -0.732378)
(19.5292 -0.286904 -3.95903)
(11.9893 -0.088647 -6.73786)
(4.20787 0.201759 -4.97199)
(-1.82219 0.244583 2.89677)
(-5.77072 0.0930986 11.3166)
(-8.35499 0.0556035 17.3478)
(-9.17274 0.0966202 19.4183)
(-9.03874 0.136591 18.5689)
(-8.80249 0.241887 16.8636)
(-8.32954 0.467941 15.3982)
(-8.40963 0.133466 13.1772)
(-19.1154 -0.0954739 -0.0334759)
(19.2378 -2.76597 40.1237)
(9.99233 -1.38963 28.7445)
(6.59894 -2.24585 15.3712)
(4.10612 -1.64044 -13.1465)
(6.99148 -1.45146 -40.6799)
(8.00052 -0.267534 -47.6237)
(21.1849 3.52449 -50.9323)
(23.8102 -1.33006 -41.4931)
(21.677 -4.60787 -21.805)
(15.51 -5.57706 32.3792)
(-9.04273 -10.9405 83.9776)
(-22.3957 -17.8396 93.8844)
(-0.949802 -23.973 62.8333)
(17.1285 -15.7576 16.8634)
(-0.44122 -12.1989 -2.76339)
(47.6623 -8.14956 -10.2603)
(62.0014 15.8169 -17.0537)
(62.8323 -11.8095 -0.655203)
(40.0034 0.00196612 0.11945)
(40.2252 0.0238482 -0.171271)
(40.5207 0.0361295 0.0903846)
(40.8054 0.0423988 0.37051)
(41.0498 0.0480576 0.675815)
(41.2594 0.053656 0.97807)
(41.4345 0.0589794 1.28836)
(41.576 0.0639678 1.61144)
(41.6847 0.0684102 1.95323)
(41.755 0.071617 2.32026)
(41.7713 0.0733581 2.71901)
(41.7071 0.0721435 3.15004)
(41.5368 0.0675206 3.61245)
(41.2347 0.0721414 4.06724)
(40.8143 0.0845264 4.54012)
(40.3098 0.0400804 5.10086)
(39.3065 0.0704229 5.25194)
(38.4056 0.00364725 5.96123)
(39.4447 -0.174543 8.79776)
(40.6112 0.202599 12.682)
(41.6993 0.298468 12.2923)
(39.4384 -0.18779 7.98261)
(33.303 -0.323012 3.21578)
(25.0997 -0.190552 -0.449124)
(17.5349 -0.292514 -3.93659)
(9.64568 -0.0952092 -5.9173)
(2.44418 0.178443 -3.33434)
(-2.45584 0.246481 3.46011)
(-6.00344 0.103105 10.8416)
(-8.21776 0.0599557 16.6859)
(-8.88922 0.0961141 19.0661)
(-8.57427 0.127943 18.6781)
(-7.85482 0.231284 17.8245)
(-6.86395 0.855809 18.5806)
(-1.22942 7.00223 12.3986)
(22.8197 2.76882 28.6109)
(28.142 10.9975 49.7356)
(27.1689 15.3094 45.4997)
(24.2385 10.4459 46.8723)
(28.0902 1.53093 48.0759)
(22.8888 -0.467999 2.12681)
(19.3299 1.11086 -17.1696)
(25.0844 6.72459 -43.143)
(32.9137 10.9727 -55.1578)
(30.909 8.05624 -55.2448)
(18.5523 8.74947 -52.5256)
(22.9691 21.7931 -32.7181)
(20.7819 10.1314 40.8729)
(-12.9129 1.86214 59.8334)
(-6.14735 4.64575 23.3845)
(-20.3775 0.974079 14.4383)
(-13.6512 -8.22613 51.4861)
(-128.098 1.7117 40.307)
(-61.3378 7.45838 4.58395)
(40.0043 0.00202843 0.13098)
(40.204 0.0243186 -0.205269)
(40.4959 0.0351634 0.0824335)
(40.7736 0.0408209 0.391007)
(41.0136 0.0461346 0.727527)
(41.2252 0.0514796 1.05885)
(41.4086 0.056575 1.39745)
(41.5653 0.0613465 1.74843)
(41.6971 0.0655969 2.1182)
(41.8 0.0686865 2.51436)
(41.8599 0.0699687 2.94596)
(41.8492 0.0682595 3.4185)
(41.7338 0.0625935 3.94104)
(41.5066 0.0638386 4.49923)
(41.1082 0.0667915 5.08835)
(40.6226 0.0390265 5.78927)
(40.1051 0.0697998 6.51781)
(38.933 0.0673688 6.93517)
(38.8083 0.102376 8.73921)
(40.004 0.152187 12.0583)
(40.811 0.180452 13.3228)
(38.1321 -0.539385 12.4163)
(36.4013 -0.529577 9.22596)
(30.4244 -0.103196 5.48489)
(22.88 -0.217495 3.99017)
(14.4381 -0.203766 1.65039)
(6.74198 0.228087 1.56747)
(1.4154 0.506528 7.09058)
(-1.43754 0.274901 13.8337)
(-3.12743 0.064148 18.4003)
(-3.57671 0.0317979 19.5423)
(-3.6468 0.0983017 18.4786)
(-3.85814 0.187664 16.9942)
(-4.06244 0.362654 15.3808)
(-16.053 -1.08015 5.43611)
(-17.0577 -0.634295 -1.36612)
(-15.8027 -0.175606 -6.36891)
(10.3004 -0.818088 34.8135)
(10.5634 -3.90291 17.1055)
(8.42915 -3.88739 -2.67513)
(14.6975 -3.60904 -31.5002)
(15.2993 2.26838 -45.4236)
(22.2531 7.71891 -60.1865)
(10.9375 -0.312696 -21.6683)
(13.9908 -6.12682 -9.96692)
(1.89742 -5.12522 53.1301)
(-9.11939 -7.71634 82.294)
(-9.03813 -12.0851 82.067)
(10.1796 -22.9753 41.5812)
(33.8193 -17.7619 4.28558)
(70.2546 -3.66227 -27.5717)
(85.9367 6.32576 -40.93)
(91.203 4.49432 -29.5535)
(99.5655 2.815 -38.8735)
(40.0037 0.00202647 0.130718)
(40.2116 0.0243217 -0.207142)
(40.4884 0.0352261 0.0794699)
(40.7627 0.0409697 0.387658)
(41.0031 0.0463891 0.723847)
(41.2149 0.0518424 1.05482)
(41.3981 0.0570463 1.39311)
(41.5544 0.0619434 1.74381)
(41.6848 0.0663276 2.11341)
(41.7849 0.0695679 2.50951)
(41.8401 0.0709383 2.94055)
(41.8244 0.0698079 3.41263)
(41.7093 0.0635918 3.93238)
(41.4754 0.0638083 4.48207)
(41.0956 0.0733505 5.06931)
(40.671 0.0442419 5.81229)
(39.9859 0.0544716 6.44348)
(38.9962 0.0910299 7.1144)
(39.0067 0.11107 8.9415)
(39.6854 0.148701 11.8021)
(40.0412 0.183908 12.8996)
(37.4883 -0.483856 11.4274)
(29.6377 -0.6942 10.0637)
(28.0333 -0.139057 5.91157)
(20.0959 -0.20421 3.31398)
(11.9122 -0.225578 1.63816)
(5.01666 0.202208 2.59016)
(1.14482 0.491145 7.57215)
(-1.40279 0.279877 13.0988)
(-2.98764 0.0608943 17.6871)
(-3.36884 0.0258328 19.2064)
(-3.28679 0.101484 18.6134)
(-3.0788 0.261618 17.7556)
(-3.10372 1.48698 18.2511)
(-1.40549 6.4946 5.73304)
(-18.1749 -0.858247 -0.736451)
(24.9699 9.92499 44.7447)
(28.2896 10.8723 53.1296)
(26.5161 6.47688 46.2041)
(30.3061 -1.62701 35.5562)
(22.5111 -2.04302 6.40914)
(21.2559 1.45602 -22.768)
(28.2988 8.78567 -46.6939)
(35.1893 13.4529 -54.629)
(32.9832 11.0837 -51.4792)
(17.7639 8.87317 -47.6868)
(14.1974 21.6617 -24.2014)
(24.2114 10.7204 35.1503)
(26.4145 -0.637252 37.7953)
(22.7968 -1.94443 6.17093)
(24.0633 3.84233 0.111138)
(78.7417 7.92047 -7.18378)
(127.927 5.75976 -16.4426)
(157.17 2.95841 -22.4237)
(40.0022 0.00175256 0.138748)
(40.1826 0.0207419 -0.239933)
(40.4582 0.0318991 0.065979)
(40.7224 0.0375542 0.395759)
(40.9566 0.0426015 0.756205)
(41.1684 0.0475188 1.10947)
(41.3584 0.0521676 1.46928)
(41.5284 0.0564928 1.84099)
(41.6807 0.0603151 2.23111)
(41.8116 0.062978 2.64735)
(41.9061 0.0635116 3.09833)
(41.9371 0.0610283 3.59197)
(41.8686 0.0536934 4.13751)
(41.6999 0.0502096 4.74472)
(41.4022 0.048976 5.40479)
(41.0436 0.0378966 6.19546)
(40.7715 0.0360783 7.1731)
(40.2733 0.072159 8.03187)
(39.7974 0.126616 9.2653)
(40.5069 0.109575 11.5056)
(41.7183 0.0999475 14.0332)
(41.3311 -0.0412852 15.7391)
(37.7904 -0.37026 14.6219)
(33.5106 -0.42369 12.8267)
(30.111 -0.550552 11.0221)
(22.523 -0.409655 9.21093)
(16.1683 0.247274 7.1813)
(9.60848 0.879037 9.12955)
(6.04912 0.468503 15.2755)
(3.86377 0.0909856 19.6146)
(3.1311 -0.00359742 20.1684)
(2.91001 -0.00423905 18.576)
(3.06136 -0.0132284 17.138)
(4.50745 -0.180097 16.8922)
(3.4159 2.29291 13.2572)
(-12.86 -1.4579 -1.98303)
(1.16208 -1.44615 4.77187)
(11.637 -2.56642 31.0517)
(18.4225 -5.14898 17.7495)
(16.3401 -3.57085 0.441908)
(23.1012 -2.31346 -24.6828)
(24.0525 2.64667 -39.5117)
(22.4493 7.78145 -56.1469)
(9.08822 2.0438 -26.1166)
(9.0051 -6.33223 5.6389)
(-2.96487 -5.76723 63.9834)
(-5.80943 -7.37927 74.8854)
(4.71772 -9.0293 52.0483)
(-20.2955 -28.8587 56.18)
(44.7263 -14.9032 7.81234)
(56.403 -0.495045 -25.5303)
(8.03906 10.1904 -37.5613)
(-91.6203 0.119361 -20.6481)
(-53.459 6.81667 -27.0069)
(40.0019 0.00175117 0.138546)
(40.1903 0.0207486 -0.241535)
(40.4528 0.031954 0.0631857)
(40.7129 0.0376829 0.392541)
(40.947 0.0428169 0.752629)
(41.1587 0.0478302 1.10554)
(41.3485 0.0525815 1.46504)
(41.518 0.0570264 1.83648)
(41.6688 0.0609633 2.22641)
(41.7965 0.0637392 2.64248)
(41.8859 0.0643632 3.09297)
(41.9099 0.0622371 3.58552)
(41.84 0.0550447 4.12972)
(41.6648 0.0496692 4.72848)
(41.3756 0.0526485 5.37891)
(41.0735 0.045828 6.20135)
(40.7458 0.0259616 7.14979)
(40.1934 0.0679742 7.97614)
(39.9225 0.149511 9.21891)
(40.842 0.123245 11.4129)
(41.9607 0.0894868 14.2226)
(41.4002 -0.0257625 15.797)
(35.7308 -0.332498 15.4519)
(32.3237 -0.353156 11.9433)
(26.5518 -0.173858 10.1847)
(20.5478 -0.385808 8.07649)
(12.6008 0.114711 7.08738)
(8.94292 0.679648 11.4544)
(6.31193 0.430041 15.3824)
(4.31144 0.0773935 18.5049)
(3.49275 -0.0191737 19.5744)
(3.1681 0.0102964 18.7302)
(3.24137 0.0743981 17.9164)
(3.34756 1.49489 19.7307)
(-0.537048 3.35191 17.5648)
(8.46551 5.40432 -5.40416)
(19.3882 6.47861 42.1966)
(25.7302 7.54879 50.9206)
(31.8757 4.07864 42.4733)
(31.643 -0.174929 26.5586)
(25.943 -1.5833 -0.486724)
(26.0392 2.96332 -24.6612)
(31.044 10.5653 -44.3257)
(39.5731 15.4139 -53.6209)
(41.9524 15.0204 -44.922)
(33.7244 13.8958 -40.5532)
(21.1197 16.7703 -31.3643)
(44.1104 10.9105 -7.18834)
(45.938 2.56551 -10.3141)
(37.4758 -0.737122 -20.8219)
(21.8194 2.99443 -22.6954)
(58.4616 6.269 -27.5277)
(14.2847 -11.1381 -18.4074)
(-30.1141 4.21579 -37.5575)
(40.0028 0.00185463 0.143973)
(40.1676 0.0215409 -0.270263)
(40.4209 0.0311686 0.0472448)
(40.6695 0.0362602 0.391654)
(40.8949 0.041063 0.769323)
(41.1044 0.0458615 1.13804)
(41.2985 0.0504196 1.51249)
(41.4792 0.0546938 1.89797)
(41.6489 0.0584814 2.30079)
(41.8046 0.0611411 2.72836)
(41.9308 0.0615418 3.18879)
(41.9997 0.0586542 3.69064)
(41.9775 0.0513053 4.24237)
(41.8551 0.0434539 4.86124)
(41.6478 0.0418342 5.54555)
(41.4027 0.0353271 6.35229)
(41.2867 0.0256014 7.36254)
(41.2625 0.045034 8.45118)
(41.1043 0.0863545 9.44128)
(41.2945 0.0751737 10.8557)
(42.45 0.0828531 13.2608)
(43.9127 0.201628 16.4232)
(43.6095 0.0834947 18.3136)
(39.4404 -0.628278 17.9959)
(39.0012 -0.94695 17.9063)
(34.7341 -0.721353 15.3909)
(29.3653 0.100834 12.8206)
(16.434 2.18088 13.6944)
(8.92079 1.5849 17.9006)
(5.86075 -0.136284 20.9257)
(7.94645 -0.480848 20.2583)
(8.93868 -0.443095 18.8161)
(10.6101 -0.17774 16.6116)
(9.94724 -0.922601 17.4341)
(12.5948 -0.436557 14.3524)
(10.3279 4.08234 -10.001)
(-8.98378 -1.89411 6.23349)
(10.9424 -4.08725 13.4888)
(12.3421 -3.55652 7.80975)
(20.7132 -3.79961 -2.51612)
(31.083 -3.2035 -19.0297)
(34.1311 1.81304 -31.9824)
(25.425 10.4036 -47.3469)
(12.8775 7.599 -39.351)
(6.18229 -5.33524 16.282)
(-2.1229 -6.71016 66.1495)
(1.80606 -8.98607 65.7518)
(13.8916 -11.2745 43.278)
(5.74254 -15.3731 28.7106)
(-3.7929 -22.5724 15.2908)
(62.0284 -16.3191 1.65687)
(22.1522 -4.75918 1.88888)
(-36.0612 2.35503 6.07939)
(-15.5487 3.56448 -2.77974)
(40.0022 0.00185335 0.143698)
(40.1743 0.0215442 -0.272196)
(40.414 0.0312207 0.0439574)
(40.6596 0.0363825 0.387887)
(40.8853 0.0412647 0.765172)
(41.0951 0.04615 1.13352)
(41.2891 0.0507994 1.5076)
(41.4693 0.0551801 1.89278)
(41.6377 0.0590676 2.29535)
(41.7902 0.0618224 2.72273)
(41.911 0.0623063 3.18286)
(41.9726 0.0596382 3.68375)
(41.9456 0.0526858 4.2352)
(41.8219 0.0433633 4.84882)
(41.6148 0.0428247 5.52485)
(41.403 0.0427958 6.33716)
(41.3004 0.0235816 7.36802)
(41.1969 0.0322979 8.40768)
(41.0164 0.103006 9.32044)
(41.4901 0.0791753 10.6129)
(42.6918 0.0729299 13.3608)
(44.5567 0.258746 16.9029)
(44.0853 0.130503 18.9219)
(39.8463 -0.486614 17.1962)
(29.0223 -1.11077 16.2677)
(30.9801 -0.830411 14.4717)
(12.7175 0.789697 13.8612)
(11.8976 1.67322 15.1624)
(12.9203 1.20279 17.6366)
(10.5529 0.111986 19.7456)
(8.11474 -0.635058 19.9713)
(6.76825 -0.751348 19.0395)
(5.39283 -0.360374 19.2369)
(7.53097 0.425635 21.8677)
(2.08295 0.0953622 22.6687)
(-0.92451 1.52896 4.77065)
(7.39518 3.30798 32.2855)
(16.6331 3.75452 37.2796)
(25.4419 2.50967 30.3917)
(29.0527 0.220984 15.7708)
(31.8073 -1.1812 -3.25649)
(31.9276 2.71612 -21.9053)
(34.4243 10.3441 -38.5151)
(43.7014 16.3319 -51.4736)
(48.733 16.9791 -41.1548)
(47.7718 17.3383 -27.5714)
(42.3473 15.6523 -19.3106)
(49.7589 9.06963 -14.7771)
(39.7682 3.60789 -9.73442)
(17.7795 -1.30525 -12.5173)
(-5.49679 -6.36941 -16.4731)
(-12.417 -0.305145 -20.5151)
(-84.6553 -5.75951 6.32619)
(-102.893 15.172 6.19536)
(40.0002 0.00152919 0.146117)
(40.1441 0.0175155 -0.297365)
(40.3784 0.0273762 0.0254214)
(40.6098 0.0324298 0.378162)
(40.8256 0.0369338 0.766645)
(41.0311 0.0412745 1.14465)
(41.2272 0.0453551 1.52757)
(41.416 0.0491643 1.92043)
(41.6002 0.052488 2.32915)
(41.7769 0.0546834 2.76065)
(41.9314 0.054594 3.2227)
(42.0358 0.0509724 3.72417)
(42.0586 0.0433012 4.27416)
(41.9862 0.0332143 4.88735)
(41.8468 0.0282422 5.57376)
(41.6859 0.0228536 6.34938)
(41.6432 0.0177232 7.28339)
(41.821 0.0161677 8.37754)
(42.0376 0.0397186 9.40514)
(42.1721 0.046187 10.3731)
(42.7555 0.0382516 11.7237)
(44.3256 0.117594 14.6448)
(46.3657 0.182445 18.0567)
(46.8582 0.0290239 20.3578)
(44.1283 -0.561628 21.5741)
(45.9489 -0.506823 20.7241)
(35.7347 -0.566547 21.4384)
(31.2501 0.0166028 21.2078)
(25.8413 1.22567 21.3975)
(20.922 1.2746 22.0565)
(17.6979 0.461677 21.4976)
(15.7868 -0.471701 19.8867)
(16.4058 -0.835815 17.5081)
(16.5331 -2.02553 16.3164)
(20.8416 -2.85693 12.6163)
(19.2857 -1.74745 4.63618)
(6.6725 -3.57603 6.97264)
(14.7224 -5.13689 3.45148)
(23.8495 -4.10442 -2.33143)
(34.0431 -3.06625 -10.2151)
(40.4674 -2.84716 -19.1622)
(45.2853 -0.333269 -24.7622)
(35.2802 7.7721 -36.4248)
(18.4528 14.1468 -52.147)
(9.66607 -1.06477 15.8896)
(4.38159 -5.15481 61.7725)
(10.8704 -10.0443 58.8434)
(15.4004 -11.6593 43.2451)
(23.3802 -17.0565 31.0348)
(13.3646 -20.7728 21.4378)
(49.5522 -16.8846 24.6015)
(32.9277 -15.023 34.3943)
(25.9814 -5.1257 23.0762)
(-31.4446 9.63237 33.0635)
(40 0.0015285 0.145899)
(40.1506 0.0175222 -0.299161)
(40.3739 0.0274199 0.0223042)
(40.6015 0.0325304 0.374547)
(40.8171 0.0371004 0.762598)
(41.0226 0.0415127 1.14018)
(41.2185 0.0456696 1.52267)
(41.4067 0.0495584 1.91515)
(41.5894 0.0529648 2.32351)
(41.7627 0.055249 2.75466)
(41.9112 0.0552461 3.21633)
(42.008 0.0517367 3.7169)
(42.024 0.0444009 4.26606)
(41.9506 0.0336494 4.87705)
(41.8098 0.0278646 5.55448)
(41.6647 0.027329 6.32533)
(41.6508 0.0218492 7.27899)
(41.7996 0.00629778 8.378)
(41.9368 0.0396565 9.34589)
(42.0824 0.0506368 10.1405)
(42.678 0.0363695 11.493)
(44.6438 0.152896 14.553)
(47.2134 0.207729 18.516)
(48.0089 0.0658504 21.085)
(43.8467 -0.454247 21.7255)
(38.6734 -0.52464 21.9014)
(31.094 -0.46127 22.0268)
(23.1115 -0.00688531 21.1449)
(18.8064 1.09864 21.155)
(18.0384 1.35752 21.7227)