/*--------------------------------*- C++ -*----------------------------------*\
| =========                 |                                                 |
| \\      /  F ield         | OpenFOAM: The Open Source CFD Toolbox           |
|  \\    /   O peration     | Version:  4.1                                   |
|   \\  /    A nd           | Web:      www.OpenFOAM.org                      |
|    \\/     M anipulation  |                                                 |
\*---------------------------------------------------------------------------*/
FoamFile
{
    version     2.0;
    format      ascii;
    class       volScalarField;
    location    "99";
    object      p;
}
// * * * * * * * * * * * * * * * * * * * * * * * * * * * * * * * * * * * * * //

dimensions      [0 2 -2 0 0 0 0];

internalField   nonuniform List<scalar> 
4432
(
100960
100960
100961
100963
100966
100969
100973
100977
100982
100988
100995
101002
101009
101017
101025
101033
101039
101043
101047
101056
101071
101087
101105
101125
101147
101171
101193
101211
101225
101237
101248
101259
101275
101296
101317
101329
101336
101344
101351
101357
101362
101365
101367
101369
101370
101368
101366
101363
101359
101353
101347
101340
101334
101329
100960
100960
100961
100963
100966
100969
100973
100977
100982
100988
100995
101002
101009
101017
101025
101033
101039
101043
101047
101056
101071
101088
101106
101126
101149
101172
101194
101211
101225
101239
101251
101262
101277
101296
101315
101328
101336
101344
101351
101357
101361
101364
101367
101369
101369
101368
101365
101362
101358
101352
101346
101341
101334
101329
100959
100959
100959
100961
100964
100967
100970
100975
100980
100986
100992
100999
101008
101017
101027
101039
101055
101072
101085
101094
101105
101120
101135
101149
101163
101177
101193
101209
101225
101241
101254
101267
101278
101288
101300
101312
101324
101338
101351
101360
101363
101362
101365
101369
101370
101369
101367
101364
101360
101357
101351
101341
101330
101328
100959
100959
100959
100961
100964
100967
100970
100975
100980
100986
100992
100999
101007
101017
101027
101039
101055
101072
101086
101095
101105
101119
101133
101146
101160
101175
101191
101207
101223
101238
101250
101260
101272
101289
101303
101315
101327
101339
101350
101359
101363
101363
101366
101369
101370
101369
101367
101365
101362
101359
101352
101339
101328
101328
100957
100957
100958
100960
100963
100966
100969
100974
100979
100985
100991
100998
101007
101016
101026
101037
101050
101062
101073
101086
101100
101116
101131
101145
101159
101176
101193
101211
101229
101245
101258
101269
101283
101299
101310
101318
101330
101346
101359
101369
101369
101367
101370
101374
101374
101372
101369
101365
101360
101355
101348
101341
101333
101329
100957
100957
100958
100960
100963
100966
100969
100974
100979
100985
100991
100998
101006
101016
101026
101037
101050
101062
101073
101085
101100
101115
101130
101143
101158
101174
101191
101209
101227
101244
101257
101266
101279
101296
101310
101321
101332
101346
101358
101368
101370
101368
101370
101374
101374
101372
101370
101366
101361
101356
101350
101340
101333
101329
100955
100955
100956
100958
100960
100963
100967
100971
100976
100982
100988
100995
101003
101012
101022
101033
101044
101055
101066
101081
101097
101112
101126
101140
101156
101176
101196
101215
101235
101253
101267
101281
101303
101317
101322
101320
101331
101347
101361
101372
101372
101371
101376
101379
101378
101375
101372
101368
101362
101354
101348
101344
101336
101329
100955
100955
100956
100958
100960
100963
100967
100971
100976
100982
100988
100995
101003
101012
101022
101033
101045
101055
101066
101080
101096
101111
101126
101139
101156
101175
101195
101214
101235
101253
101267
101280
101299
101314
101323
101327
101336
101348
101361
101370
101371
101371
101375
101379
101378
101375
101371
101367
101362
101356
101351
101345
101336
101328
100952
100953
100954
100955
100958
100961
100964
100968
100973
100979
100985
100992
101000
101008
101018
101028
101039
101050
101061
101072
101087
101102
101117
101133
101152
101175
101199
101222
101245
101266
101282
101301
101323
101339
101364
101309
101322
101348
101370
101387
101385
101378
101384
101385
101383
101380
101376
101371
101366
101359
101352
101346
101338
101330
100952
100953
100954
100955
100958
100961
100964
100968
100973
100979
100985
100992
101000
101008
101018
101028
101039
101050
101061
101072
101086
101102
101117
101133
101153
101176
101199
101222
101247
101269
101284
101301
101321
101334
101341
101334
101337
101353
101371
101384
101383
101380
101383
101385
101383
101380
101375
101371
101366
101360
101354
101347
101337
101330
100949
100949
100950
100952
100954
100957
100960
100964
100969
100975
100981
100987
100995
101003
101012
101022
101032
101043
101053
101064
101078
101092
101107
101123
101142
101167
101194
101220
101247
101270
101288
101307
101331
101402
101531
101359
101307
101328
101359
101369
101377
101397
101398
101394
101390
101385
101381
101375
101369
101362
101354
101346
101338
101331
100949
100949
100950
100952
100954
100957
100960
100964
100969
100975
100981
100987
100995
101003
101012
101022
101032
101043
101053
101064
101078
101093
101108
101124
101144
101168
101194
101219
101246
101271
101288
101302
101320
101351
101378
101343
101324
101346
101375
101396
101402
101393
101393
101392
101390
101386
101381
101376
101369
101361
101354
101347
101339
101331
100945
100946
100947
100948
100950
100953
100956
100960
100965
100970
100976
100982
100989
100997
101006
101015
101025
101035
101045
101056
101069
101083
101098
101111
101127
101150
101179
101204
101227
101251
101275
101302
101345
101510
101469
101444
101339
101352
101376
101384
101394
101409
101409
101402
101397
101393
101388
101381
101374
101366
101357
101348
101338
101332
100945
100946
100947
100948
100950
100953
100956
100960
100965
100970
100976
100982
100989
100997
101006
101015
101025
101035
101045
101056
101069
101084
101099
101113
101129
101152
101178
101201
101226
101251
101272
101293
101319
101369
101425
101388
101320
101339
101375
101392
101400
101404
101403
101400
101395
101391
101386
101380
101373
101365
101356
101347
101339
101331
100941
100941
100942
100944
100946
100948
100951
100955
100959
100964
100970
100976
100983
100991
100999
101008
101017
101027
101037
101048
101060
101072
101086
101098
101108
101125
101152
101174
101193
101210
101232
101264
101295
101352
101402
101414
101356
101365
101389
101402
101408
101411
101411
101406
101400
101396
101390
101384
101375
101366
101357
101347
101336
101331
100941
100941
100942
100944
100946
100948
100951
100955
100959
100964
100970
100976
100983
100991
100999
101008
101017
101027
101037
101048
101060
101072
101085
101099
101111
101128
101150
101170
101190
101212
101232
101259
101298
101340
101379
101368
101348
101364
101390
101404
101409
101411
101408
101404
101399
101394
101389
101382
101375
101366
101356
101346
101337
101331
100936
100936
100937
100939
100941
100943
100946
100949
100953
100958
100963
100969
100976
100983
100991
101000
101009
101019
101029
101039
101049
101060
101070
101080
101087
101095
101112
101134
101157
101179
101204
101232
101274
101318
101358
101361
101360
101378
101399
101411
101415
101416
101415
101411
101405
101399
101393
101386
101378
101368
101357
101347
101336
101331
100936
100936
100937
100939
100941
100943
100946
100949
100953
100958
100963
100969
100976
100983
100991
101000
101009
101019
101029
101039
101049
101059
101069
101079
101087
101097
101113
101133
101154
101177
101202
101234
101276
101318
101351
101364
101371
101387
101405
101415
101419
101418
101415
101411
101406
101400
101393
101386
101378
101369
101358
101347
101337
101332
100931
100931
100932
100933
100935
100937
100940
100943
100947
100951
100956
100962
100968
100975
100983
100991
101000
101010
101020
101029
101039
101046
101053
101057
101060
101062
101073
101098
101127
101156
101185
101221
101265
101309
101349
101372
101390
101408
101423
101432
101434
101433
101430
101424
101417
101409
101400
101392
101382
101372
101360
101348
101337
101331
100931
100931
100932
100933
100935
100937
100940
100943
100947
100951
100956
100962
100968
100975
100983
100991
101000
101010
101020
101029
101039
101046
101052
101056
101058
101061
101075
101099
101126
101155
101186
101222
101265
101310
101348
101374
101393
101411
101427
101437
101439
101437
101433
101427
101420
101411
101402
101393
101383
101372
101360
101349
101338
101334
100925
100926
100926
100927
100929
100931
100933
100936
100939
100943
100948
100953
100959
100966
100973
100981
100990
101000
101010
101020
101029
101035
101037
101032
101023
101019
101033
101066
101103
101139
101175
101215
101259
101306
101350
101385
101413
101435
101453
101462
101463
101458
101449
101440
101430
101419
101408
101397
101385
101374
101361
101349
101336
101330
100925
100926
100926
100927
100929
100931
100933
100936
100939
100943
100948
100953
100959
100966
100973
100981
100990
101000
101010
101020
101029
101035
101037
101032
101022
101018
101035
101068
101103
101139
101176
101217
101262
101308
101350
101384
101412
101435
101454
101464
101465
101460
101451
101442
101432
101420
101409
101398
101387
101375
101362
101350
101334
101334
100919
100919
100920
100921
100922
100924
100926
100929
100932
100935
100939
100944
100949
100956
100963
100971
100980
100990
101001
101013
101023
101029
101027
101010
100975
100956
100979
101026
101073
101114
101155
101201
101250
101302
101351
101394
101431
101461
101483
101493
101491
101481
101468
101454
101441
101427
101414
101400
101388
101375
101362
101349
101334
101331
100919
100919
100920
100921
100922
100924
100926
100929
100932
100935
100939
100944
100949
100956
100963
100971
100980
100990
101001
101013
101023
101028
101026
101009
100974
100956
100980
101027
101072
101113
101155
101202
101251
101302
101350
101394
101431
101461
101483
101494
101492
101482
101469
101455
101442
101429
101415
101402
101389
101376
101362
101349
101330
101336
100913
100913
100914
100914
100915
100917
100919
100921
100923
100926
100930
100934
100939
100944
100951
100959
100968
100979
100992
101007
101021
101031
101027
100993
100911
100874
100910
100977
101036
101081
101126
101176
101232
101290
101348
101403
101452
101491
101518
101528
101521
101504
101485
101468
101450
101433
101417
101402
101388
101375
101362
101349
101332
101332
100913
100913
100914
100914
100915
100917
100919
100921
100923
100926
100930
100934
100939
100944
100951
100959
100968
100979
100992
101007
101021
101031
101026
100990
100905
100872
100915
100980
101037
101081
101126
101176
101232
101290
101348
101403
101453
101493
101521
101529
101521
101505
101487
101470
101452
101434
101417
101402
101389
101376
101362
101348
101329
101332
100906
100906
100907
100907
100908
100909
100911
100912
100914
100917
100920
100923
100927
100932
100938
100946
100955
100967
100981
101001
101026
101053
101067
101006
100822
100727
100814
100926
100996
101039
101086
101142
101205
101271
101340
101409
101473
101525
101564
101572
101555
101528
101502
101479
101458
101437
101418
101402
101388
101374
101360
101347
101329
101333
100906
100906
100907
100907
100908
100909
100911
100912
100914
100917
100920
100923
100927
100932
100938
100946
100955
100967
100981
101001
101026
101054
101068
101004
100805
100731
100822
100926
100995
101040
101086
101142
101205
101271
101340
101406
101474
101526
101580
101584
101559
101526
101498
101475
101455
101435
101417
101401
101387
101374
101360
101347
101331
101330
100900
100900
100900
100900
100901
100901
100902
100904
100905
100907
100909
100911
100915
100919
100924
100930
100939
100950
100965
100988
101025
101090
101155
101144
100586
100491
100650
100877
100967
100991
101032
101096
101165
101239
101320
101405
101489
101549
101619
101631
101592
101540
101505
101481
101458
101435
101415
101398
101384
101371
101358
101347
101332
101331
100900
100900
100900
100900
100901
100901
100902
100904
100905
100907
100909
100911
100915
100919
100924
100930
100939
100950
100965
100988
101025
101089
101152
101134
100513
100550
100699
100884
100964
100994
101036
101097
101166
101239
101323
101410
101500
101534
101615
101631
101586
101533
101502
101480
101457
101434
101414
101397
101383
101370
101358
101346
101334
101329
100893
100893
100893
100893
100893
100893
100894
100894
100895
100896
100897
100899
100901
100904
100908
100912
100919
100928
100941
100960
100990
101039
101156
101442
100433
100620
100851
100936
100936
100964
101025
101098
101181
101279
101385
101501
101546
101626
101684
101631
101552
101507
101480
101453
101428
101406
101389
101375
101363
101352
101343
101334
101327
100893
100893
100893
100893
100893
100893
100894
100894
100895
100896
100897
100899
100901
100904
100908
100912
100919
100928
100941
100960
100990
101037
101153
101430
100404
100636
100857
100937
100941
100970
101029
101100
101183
101271
101394
101511
101511
101510
101656
101619
101552
101509
101479
101450
101425
101405
101388
101375
101363
101352
101343
101335
101327
100886
100886
100885
100885
100885
100885
100885
100885
100885
100885
100886
100886
100887
100888
100890
100892
100896
100901
100908
100917
100925
100924
100886
100814
100526
100531
100804
100954
100952
100915
100915
100950
101003
101080
101182
101293
101421
101464
101536
101726
101673
101586
101520
101472
101435
101407
101387
101371
101359
101349
101341
101335
101331
101324
100886
100886
100885
100885
100885
100885
100885
100885
100885
100885
100886
100886
100887
100888
100890
100892
100896
100901
100908
100917
100925
100923
100884
100804
100521
100575
100828
100955
100947
100915
100919
100954
101004
101071
101127
101288
101310
101552
101492
101541
101577
101557
101515
101470
101433
101406
101386
101371
101359
101349
101342
101335
101331
101325
100879
100879
100878
100878
100878
100877
100876
100876
100875
100874
100873
100873
100872
100871
100871
100871
100871
100872
100872
100870
100864
100846
100813
100747
100675
100683
100826
100902
100905
100892
100885
100887
100902
100954
101106
101268
101257
101480
101778
101621
101587
101557
101498
101440
101398
101374
101359
101348
101339
101334
101330
101328
101327
101323
100879
100879
100878
100878
100878
100877
100876
100876
100875
100874
100873
100873
100872
100871
100871
100871
100871
100872
100872
100870
100864
100846
100813
100747
100671
100690
100825
100896
100900
100889
100884
100887
100898
100928
100970
101183
101016
101455
101911
100998
101402
101534
101501
101446
101401
101375
101359
101348
101340
101334
101330
101328
101326
101323
100872
100872
100871
100871
100870
100869
100868
100866
100865
100863
100861
100859
100857
100854
100852
100849
100845
100841
100836
100828
100816
100798
100771
100732
100685
100677
100721
100770
100800
100815
100820
100812
100794
100781
100874
101137
102161
101492
100698
100971
101428
101522
101465
101400
101358
101339
101329
101322
101318
101318
101319
101320
101323
101321
100872
100872
100871
100871
100870
100869
100868
100866
100865
100863
100861
100859
100857
100854
100852
100849
100845
100841
100836
100828
100816
100797
100771
100732
100685
100679
100722
100769
100798
100812
100817
100810
100796
100716
100841
101146
101687
99915.5
100374
99806.7
100485
101359
101461
101410
101364
101339
101329
101322
101319
101318
101319
101320
101322
101322
100865
100865
100864
100864
100862
100861
100859
100857
100855
100852
100849
100846
100842
100837
100832
100827
100820
100812
100802
100790
100773
100752
100725
100691
100655
100637
100647
100671
100693
100707
100711
100704
100609
100644
100714
99882.1
99510.3
99291.8
99270.6
99704.8
100520
101278
101387
101321
101296
101290
101289
101290
101294
101300
101306
101311
101317
101320
100865
100865
100864
100864
100862
100861
100859
100857
100855
100852
100849
100846
100842
100837
100832
100827
100820
100812
100802
100790
100773
100752
100725
100691
100656
100638
100648
100673
100692
100704
100711
100710
100712
100715
100655
100320
102570
99925.8
99453
99372.7
99929.2
100796
101306
101327
101292
101286
101288
101291
101294
101300
101306
101312
101318
101321
100859
100858
100858
100857
100855
100853
100851
100848
100845
100841
100837
100832
100827
100820
100813
100805
100795
100784
100770
100753
100733
100708
100679
100646
100614
100591
100582
100582
100582
100584
100586
100612
100385
100590
101077
100828
99378.1
99221.2
99457.4
99712.3
100134
100747
101134
101188
101217
101232
101244
101256
101269
101282
101293
101302
101312
101319
100859
100858
100858
100857
100855
100853
100851
100848
100845
100841
100837
100832
100827
100820
100813
100805
100795
100784
100770
100753
100733
100708
100679
100646
100614
100591
100582
100582
100580
100578
100575
100616
100574
100633
100969
100545
100845
99644.2
99650.6
99822.5
100287
100741
100990
101122
101203
101232
101245
101258
101270
101282
101293
101303
101313
101318
100853
100852
100852
100850
100848
100846
100843
100840
100836
100831
100826
100820
100812
100804
100795
100784
100771
100757
100739
100719
100695
100666
100634
100599
100563
100529
100501
100477
100454
100449
100466
100703
100514
99734.4
100076
100493
99612.1
99420.6
99597.1
99841.5
100082
100350
100911
101074
101153
101182
101202
101225
101246
101264
101280
101294
101309
101317
100853
100852
100852
100850
100848
100846
100843
100840
100836
100831
100826
100820
100812
100804
100795
100784
100771
100757
100739
100719
100695
100666
100634
100599
100563
100529
100501
100476
100449
100426
100393
100438
100674
100007
97252.8
98211.6
99292.6
99414.4
99661.9
99939.2
100276
100492
100783
101022
101144
101183
101205
101226
101247
101264
101280
101294
101308
101317
100847
100847
100846
100844
100842
100839
100836
100832
100827
100822
100815
100808
100799
100789
100778
100765
100749
100732
100711
100687
100659
100626
100589
100548
100503
100456
100407
100356
100305
100274
100333
100532
100838
99969.3
99294.2
99366.7
99373.4
99441.7
99476.9
99551.1
99824.5
100129
100615
100980
101102
101141
101167
101196
101224
101247
101267
101285
101304
101314
100847
100847
100846
100844
100842
100839
100836
100832
100827
100822
100815
100808
100799
100789
100778
100765
100749
100732
100711
100687
100659
100626
100589
100548
100503
100456
100407
100355
100297
100247
100168
100398
100604
100060
98369.7
98895
99314.3
99464.1
99490.2
99561.8
99907.9
100237
100586
100944
101092
101137
101167
101197
101224
101247
101267
101284
101304
101315
100842
100842
100840
100839
100836
100833
100829
100825
100819
100813
100805
100797
100787
100775
100762
100747
100729
100709
100685
100657
100625
100588
100545
100497
100441
100379
100308
100219
100123
99921.1
100118
100091
100609
94574.7
96336.9
98524.9
99295.5
99540.2
99389.6
99265.6
99557.1
100035
100534
100875
101019
101085
101128
101169
101204
101232
101255
101275
101298
101311
100842
100842
100840
100839
100836
100833
100829
100825
100819
100813
100805
100797
100787
100775
100762
100747
100729
100709
100685
100657
100625
100588
100545
100497
100441
100379
100308
100223
100120
99982
99879
99977.5
98680
98656.6
98708.8
99044
99477.7
99622.8
99392.5
99220
99568.1
100106
100562
100868
101011
101080
101128
101170
101204
101232
101255
101275
101297
101310
100837
100837
100836
100834
100831
100828
100823
100818
100812
100805
100797
100787
100776
100763
100748
100731
100711
100688
100661
100630
100594
100552
100504
100447
100381
100303
100211
100090
99936.9
99648.6
99242
100408
96874.1
95075.6
96965.9
98854.9
99840.2
100031
99612.1
99282
99526.8
100006
100453
100760
100923
101028
101094
101148
101190
101222
101248
101270
101293
101307
100838
100837
100836
100834
100831
100828
100823
100818
100812
100805
100797
100787
100776
100763
100748
100731
100711
100688
100661
100630
100594
100552
100504
100447
100381
100303
100210
100100
99945.6
99723
99447.7
99150.9
97644.9
96529
98070.9
99266.9
100033
100121
99614.7
99236.9
99519.7
100076
100514
100763
100918
101022
101093
101148
101190
101222
101249
101271
101294
101306
100834
100833
100832
100830
100827
100823
100818
100813
100806
100798
100789
100779
100766
100752
100736
100717
100695
100670
100641
100607
100567
100520
100466
100402
100326
100235
100123
99982.6
99794.2
99533.6
99074.8
98869.2
100341
100219
99842.8
100319
100870
100736
99980.7
99353.1
99471.9
99920.2
100342
100661
100859
100988
101072
101139
101186
101219
101246
101269
101295
101304
100834
100833
100832
100830
100827
100823
100818
100813
100806
100798
100789
100779
100766
100752
100736
100717
100695
100670
100641
100607
100567
100520
100466
100402
100325
100234
100117
99985.6
99818.6
99604.2
99328.9
98724.5
98114.1
98717.1
99577.1
100444
101033
100814
99982.2
99314.5
99455.3
99968.6
100390
100662
100850
100980
101067
101137
101185
101217
101245
101269
101298
101307
100831
100830
100829
100826
100823
100819
100814
100808
100801
100793
100783
100772
100759
100744
100726
100706
100682
100655
100624
100587
100544
100494
100435
100365
100281
100179
100055
99902.5
99698.6
99438.5
99047.2
98595
98979
99842.1
99727
100181
100878
100877
100171
99370.9
99392.7
99850.4
100320
100639
100828
100959
101061
101137
101186
101217
101243
101266
101294
101303
100831
100830
100829
100826
100823
100819
100814
100808
100801
100793
100783
100772
100759
100744
100726
100706
100682
100655
100624
100587
100544
100494
100435
100364
100280
100173
100052
99902.9
99701.7
99447.2
99230.8
98448.6
98392.9
99132.6
99679
100461
101007
100877
100185
99396.2
99368.7
99858
100343
100649
100828
100953
101053
101134
101185
101216
101241
101263
101294
101309
100828
100828
100826
100824
100820
100816
100811
100805
100797
100788
100778
100766
100753
100737
100718
100697
100672
100644
100610
100572
100526
100473
100410
100336
100247
100140
100010
99847.6
99638.5
99376.4
99065.2
98627
98429.7
98663.8
98253.9
98986
99880.2
100334
100222
99733.1
99639
100008
100427
100724
100860
100973
101076
101148
101193
101221
101241
101254
101278
101299
100828
100828
100826
100824
100820
100816
100811
100805
100797
100788
100778
100766
100753
100737
100718
100697
100672
100644
100610
100572
100526
100473
100410
100336
100247
100139
100016
99852.3
99631.8
99365.6
99042.5
98593.2
98498.5
98616
98893.3
99421.2
99586.9
99951.9
100058
99798
99677.9
99985.8
100420
100739
100884
100973
101068
101148
101193
101218
101239
101253
101275
101302
100827
100827
100825
100822
100819
100814
100809
100802
100795
100786
100775
100763
100749
100732
100713
100691
100666
100636
100602
100561
100514
100459
100394
100317
100224
100113
99978.3
99812.4
99606.3
99353.9
99067.6
98721.6
98434.3
98062.5
97399.2
97313
96805.3
96869.6
97298.6
98431.5
99305.3
100092
100538
100825
100985
101092
101167
101211
101236
101250
101254
101250
101254
101290
100827
100827
100825
100822
100819
100814
100809
100802
100795
100786
100775
100763
100749
100732
100713
100691
100666
100636
100602
100561
100514
100459
100394
100317
100224
100114
99980.1
99818.2
99606.9
99339.2
99073.2
98743.5
98415.2
98170.9
97782.8
97143.8
96362.3
96480.5
97046.7
98280.6
99371.9
100099
100535
100821
100983
101093
101166
101211
101233
101246
101255
101253
101255
101289
100826
100825
100824
100821
100817
100813
100808
100801
100793
100784
100773
100761
100746
100730
100710
100688
100662
100632
100597
100556
100508
100452
100385
100306
100212
100099
99962.1
99795.5
99592.9
99350.4
99071.4
98747.2
98366.9
97962.5
97493.7
96535.8
94835.7
94157.2
94655.4
96335.1
98211.6
99497.9
100211
100604
100895
101098
101192
101229
101248
101258
101256
101249
101238
101271
100826
100825
100824
100821
100817
100813
100808
100801
100793
100784
100773
100761
100746
100730
100710
100688
100662
100632
100597
100556
100508
100452
100385
100307
100212
100099
99962.7
99797.4
99594
99350.2
99079.2
98791.3
98492.1
98042.9
97146.8
95897.9
94849.9
94318.3
94735.9
96248
98135.7
99496.8
100217
100596
100867
101084
101196
101227
101243
101256
101256
101248
101241
101270
100670
101139
100626
101552
101560
100595
100528
100572
100461
100428
100610
101133
100571
101556
101519
100564
100452
100550
100421
100403
101446
100877
100556
100867
100497
100513
100441
100531
100394
100467
100388
101414
100864
100481
100863
100474
100422
100410
100445
100396
100438
100413
100926
101005
100921
101047
100920
101044
100913
100763
100813
100756
100722
100650
100702
100631
100913
101003
100910
101041
100887
101041
100871
100753
100801
100751
100667
100613
100649
100610
101217
101154
101216
101205
101352
101205
101354
100535
100667
100579
100676
100556
100574
100524
100606
100411
100430
100393
100434
101213
101151
101212
101204
101343
101200
101349
100447
100601
100488
100579
100449
100624
100556
100633
100392
100453
100411
100494
101248
101155
101249
101027
101013
101026
101010
100678
101454
101148
101146
100724
100443
100474
100458
100407
100460
100428
100482
100422
100488
101241
101151
101246
101024
101005
101023
101007
100664
101427
101136
100670
101136
100402
100408
100472
100417
100498
100441
100513
100466
100533
100673
100809
100667
100777
100682
100777
100683
100386
100523
100419
100590
100567
100593
100579
100658
100803
100657
100776
100683
100776
100684
100451
100521
100459
100596
100588
100598
100591
100987
100897
100660
100891
101024
100986
100647
100876
100886
100974
101368
101464
101566
101471
101382
101153
101192
101369
101474
101562
101471
101377
101154
101154
100505
100554
100616
100644
100451
100538
100557
100535
100466
100453
100461
100548
100513
100463
100517
100439
100433
100444
100467
100973
100856
100592
100843
100974
100970
100573
100837
100827
100967
101389
101475
101549
101388
101479
101199
101196
101388
101467
101536
101468
101360
101224
101152
100412
100468
100527
100558
100331
100455
100463
100448
100437
100408
100461
100427
100432
100380
100449
100432
100402
100422
100452
100347
100401
100674
101450
101144
101142
100672
100343
100333
100379
100654
100541
100651
100431
100374
100519
100626
100360
100639
100456
100494
100473
100447
100483
100425
100410
100435
100458
100402
100414
100414
100434
100507
100522
100506
100446
100427
100496
100467
100423
100491
100326
100334
100655
101426
101136
101139
100681
100317
100357
100348
100618
100467
100358
100610
100337
100465
100602
100607
100379
100406
100410
100390
100411
100390
100408
100415
100409
100407
100395
100390
100404
100406
100444
100427
100418
100433
100397
100426
100432
100430
100382
101204
101063
101143
101286
101059
101288
101211
101178
101036
101133
101275
101030
101170
101282
101202
101141
101051
101284
101055
101287
101199
100582
100631
100591
100481
100627
100485
100586
100549
100581
100581
100477
100604
100485
100507
101193
101141
101047
101302
101044
101294
101199
100502
100572
100552
100472
100560
100501
100461
100507
100547
100545
100462
100551
100464
100489
100785
100956
100791
100874
100951
100790
100792
100777
100946
100870
100778
100946
100776
100784
100396
100402
100426
100386
100386
100420
100407
100382
100373
100380
100418
100374
100382
100417
100764
100943
100773
100861
100771
100939
100768
100757
100947
100863
100762
100945
100765
100760
100381
100373
100412
100403
100381
100378
100408
100373
100384
100410
100385
100381
100393
100369
100519
100620
100403
100551
100636
100483
100445
100259
100142
100109
100275
100261
100080
100095
100227
100506
100552
100625
100448
100633
100454
100497
100340
100539
100452
100178
100546
100321
100207
100051
99951.6
100083
99925.7
100350
100452
100542
100241
100368
100542
100226
100026
99877.7
99903.5
99997.8
101124
100901
100922
100681
100899
101121
100927
101358
101591
101605
101366
101350
101588
101592
101346
101137
100681
100944
100933
100914
100932
101134
100453
100468
101123
100898
100665
100915
100896
101120
100913
101352
101595
101594
101344
101346
101591
101591
101335
101125
100667
100905
100919
101122
100902
100915
100403
100406
100516
100928
100546
100990
100932
100510
100551
100317
100176
100149
100340
100307
100121
100127
100302
100508
100990
100933
100591
100933
100547
100574
100499
100924
100542
100986
100505
100920
100534
100267
100035
100061
100247
100281
100103
100294
100080
100490
100982
100906
100504
100916
100520
100471
101603
101428
101578
101366
101428
101576
101601
101670
101664
101678
101658
101660
101660
101666
101656
101612
101376
101427
101588
101432
101592
101592
101151
101159
101605
101428
101375
101581
101431
101601
101585
101665
101673
101679
101663
101609
101378
101432
101609
101434
101588
101622
101661
101661
101657
101663
101155
101151
100415
100595
100351
100483
100448
100575
100311
100129
99974.8
100107
100000
100148
100049
100185
100020
100394
100458
100540
100267
100379
100549
100286
100548
100551
100490
100520
100504
100543
100525
100506
100488
100497
100526
100535
100496
100486
100506
100480
100522
100498
100544
100530
100516
100528
100510
100499
100489
100469
100473
100508
100498
100493
100497
100478
100484
100457
100457
100453
100464
100464
100480
100473
100463
100483
100473
100456
100462
100483
100467
100471
100437
100870
100983
100499
100886
100417
100505
100216
100017
100000
100228
100438
100976
100890
100515
100884
100450
100504
100209
99959.5
99982.1
100193
100375
100851
100500
100969
100383
100849
100503
100167
99995.1
99932.6
100225
100163
99946.9
100177
99924.7
100371
100931
100851
100508
100841
100474
100454
101669
101399
101428
101728
101434
101671
101673
101727
101689
101691
101707
101667
101399
101424
101679
101425
101658
101681
101725
101698
101692
101733
101191
101204
101624
101412
101698
101373
101409
101636
101688
101728
101629
101697
101639
101710
101681
101707
101693
101632
101360
101409
101664
101414
101747
101600
101211
101162
100284
100522
100115
100372
100293
100515
100075
99909.6
99907.3
99827.2
99976.1
99943.5
99859.2
99966.8
99828.1
100226
100331
100453
100041
100478
100039
100236
100461
100464
100431
100452
100446
100441
100452
100445
100426
100443
100454
100450
100446
100440
100455
100467
100456
100448
100459
100449
100434
100428
100427
100437
100399
100373
100428
100445
100435
100451
100458
100422
100436
100428
100420
100419
100433
100427
100423
100422
100422
100431
100444
100458
100443
100459
100435
100431
100352
100347
101123
100901
100919
100675
101119
100900
100921
101345
101587
101341
101585
101348
101588
101345
101589
101125
100674
100897
100923
101123
100894
100925