/*--------------------------------*- C++ -*----------------------------------*\
| =========                 |                                                 |
| \\      /  F ield         | OpenFOAM: The Open Source CFD Toolbox           |
|  \\    /   O peration     | Version:  4.1                                   |
|   \\  /    A nd           | Web:      www.OpenFOAM.org                      |
|    \\/     M anipulation  |                                                 |
\*---------------------------------------------------------------------------*/
FoamFile
{
    version     2.0;
    format      ascii;
    class       surfaceScalarField;
    location    "99";
    object      phi;
}
// * * * * * * * * * * * * * * * * * * * * * * * * * * * * * * * * * * * * * //

dimensions      [0 3 -1 0 0 0 0];

internalField   nonuniform List<scalar> 
11516
(
9.98789e+06
11.3293
9003.6
9.96854e+06
34.3941
19580.4
9.94029e+06
43.8676
28494
9.90356e+06
45.4369
36968.3
9.8583e+06
45.606
45517.1
9.80427e+06
48.943
54309.1
9.74118e+06
51.7567
63386.3
9.66882e+06
53.2975
72692.8
9.58703e+06
58.1006
82125.9
9.49561e+06
57.7711
91779.5
9.39472e+06
60.6903
101286
9.28524e+06
71.3547
109882
9.16901e+06
-22.2057
116755
9.05065e+06
-156.739
119016
8.94029e+06
-1505.45
112326
8.85262e+06
-2386
90465.8
8.80384e+06
-985.193
50181.4
8.80215e+06
-545.012
2549.03
8.80435e+06
-18.6414
-1910.88
8.76699e+06
1139.11
36510.7
8.69778e+06
-1067.11
70590.5
8.59853e+06
-4706.39
104286
8.47552e+06
-7717.52
131053
8.33566e+06
-10258.8
150446
8.17996e+06
-12293.3
168317
8.02676e+06
-13964.4
167503
7.8875e+06
-11979.2
151624
7.76705e+06
-7281.49
128171
7.66209e+06
-7418.14
112861
7.56601e+06
-12934.5
109521
7.45825e+06
-21956.6
130174
7.30297e+06
-31265.5
186775
7.10127e+06
-31649
233200
6.89854e+06
-18916.7
221079
6.73974e+06
-2880.54
161136
6.59956e+06
3477.71
136958
6.46013e+06
3589.74
137193
6.33669e+06
1800.99
123162
6.24138e+06
-129.672
96199.6
6.17893e+06
-278.096
63075.8
6.13961e+06
1713.83
37910.8
6.11347e+06
4361.17
22089.6
6.0948e+06
5950.25
12897.4
6.08901e+06
7646.38
-1915.91
6.09818e+06
9654.1
-19091
6.12106e+06
10653.7
-33563.7
6.1551e+06
12841.4
-46484.9
6.19989e+06
14515.8
-58742.8
6.25432e+06
14939.5
-69585.1
6.31695e+06
21341.1
-83963.5
6.3928e+06
17476.6
-91748.4
6.46592e+06
6776.2
-78877.9
6.5416e+06
3335.43
-76433.5
3064.05
-77453.6
9.98791e+06
9002.98
9.96854e+06
19579.1
9.94028e+06
28500
9.90354e+06
36970.9
9.85828e+06
45510.9
9.80425e+06
54303.3
9.74117e+06
63369.1
9.66881e+06
72666.6
9.58704e+06
82099.1
9.49564e+06
91739.5
9.39473e+06
101270
9.28526e+06
109871
9.16863e+06
116943
9.04903e+06
119781
8.93361e+06
114250
8.84075e+06
90826.4
8.79402e+06
46096.9
8.79841e+06
-4681.62
8.80557e+06
-6950.13
8.77038e+06
36555.9
8.70179e+06
67748.6
8.60438e+06
92941.5
8.48229e+06
114602
8.33973e+06
132530
8.17683e+06
150843
8.01385e+06
149282
7.8634e+06
138771
7.72758e+06
128876
7.60459e+06
115951
7.4967e+06
95378.7
7.39333e+06
81778.9
7.26029e+06
101832
7.07951e+06
148890
6.87027e+06
189839
6.68179e+06
185407
6.51358e+06
172221
6.35052e+06
167670
6.20846e+06
144734
6.09214e+06
116633
6.00553e+06
86472.9
5.9443e+06
63111.8
5.89944e+06
49311
5.86591e+06
39385
5.85218e+06
21021.5
5.85987e+06
1899.79
5.88782e+06
-17115.2
5.92981e+06
-28818.3
5.98388e+06
-39456.4
6.05075e+06
-52082
6.14679e+06
-73713.4
6.26162e+06
-97428.3
6.35855e+06
-88334.8
6.44662e+06
-83494.5
-85721.8
1.00058e+07
10.3222
5199.04
1.00115e+07
30.1991
14128.9
1.00173e+07
35.8777
22907.7
1.00228e+07
36.6751
31705.4
1.00278e+07
39.268
40693.1
1.00323e+07
42.6773
50004
1.00363e+07
47.6448
59712
1.00396e+07
53.8272
69669.1
1.00415e+07
57.0536
80520.1
1.0042e+07
65.1214
91554.1
1.00405e+07
68.0855
103113
1.00359e+07
61.7202
114810
1.00264e+07
134.122
126670
1.00082e+07
248.257
137489
9.96855e+06
1673.85
150825
9.89686e+06
2001.39
160723
9.77446e+06
2199.94
171119
9.58673e+06
1245.52
189328
9.37986e+06
-985.67
206096
9.19978e+06
-1336.91
218055
9.04357e+06
232.905
226689
8.90932e+06
1904.96
236756
8.7867e+06
3242.03
250554
8.66645e+06
4357.35
266462
8.55002e+06
4974.43
279896
8.43184e+06
5673.95
280167
8.30815e+06
6202.83
269321
8.16711e+06
7627.23
261841
8.01525e+06
11340.1
253626
7.86219e+06
14286.7
248542
7.70699e+06
17516
268061
7.56315e+06
20451.7
310241
7.44607e+06
16391.4
333876
7.3478e+06
4460.65
314793
7.25673e+06
-10481.4
262257
7.17068e+06
-23663.1
246840
7.08671e+06
-30949.7
252919
7.00455e+06
-30729.5
237137
6.9144e+06
-26040.4
212843
6.8374e+06
-20595.2
160694
6.77583e+06
-21355.4
120723
6.72201e+06
-27337.2
102935
6.68378e+06
-30312.4
80719
6.66441e+06
-31689.4
48348.5
6.66184e+06
-33255.5
16205.8
6.67299e+06
-33818.9
-10954.9
6.69439e+06
-35977.8
-31674.9
6.72042e+06
-38124.2
-46277.2
6.74389e+06
-41975.5
-50760.9
6.78038e+06
-53620.8
-66531
6.82565e+06
-36642.9
-100164
6.88215e+06
-21571.7
-112595
6.94093e+06
-14534.2
-118996
-12364.4
-123692
1.00058e+07
5198.82
1.00115e+07
14127.5
1.00173e+07
22905.9
1.00228e+07
31701.8
1.00278e+07
40687.3
1.00323e+07
49998.1
1.00363e+07
59705.4
1.00395e+07
69659.6
1.00414e+07
80514.1
1.00419e+07
91540.8
1.00404e+07
103102
1.00358e+07
114838
1.00267e+07
126594
1.00094e+07
137629
9.97753e+06
148255
9.91239e+06
158467
9.7858e+06
175339
9.59339e+06
189153
9.381e+06
204546
9.20099e+06
215319
9.0474e+06
221658
8.91347e+06
228866
8.79214e+06
239263
8.67431e+06
254821
8.56225e+06
267982
8.44874e+06
268620
8.32802e+06
265899
8.19767e+06
267100
8.06465e+06
260606
7.92941e+06
245236
7.7736e+06
255312
7.6027e+06
293283
7.45548e+06
312470
7.3565e+06
293296
7.28306e+06
248124
7.22108e+06
210751
7.16504e+06
193791
7.10757e+06
172480
7.0516e+06
147000
7.01457e+06
102739
6.9825e+06
73557.2
6.94942e+06
54529.4
6.9271e+06
30599.2
6.91627e+06
-445.131
6.9161e+06
-31490.3
6.92378e+06
-58573.2
6.93753e+06
-78257
6.94979e+06
-89633.9
6.95551e+06
-99637.9
6.93729e+06
-109138
6.93415e+06
-130594
6.9703e+06
-144991
7.01864e+06
-146344
-156067
9.99931e+06
9.97898
6523.97
9.99424e+06
28.8372
19405.4
9.98523e+06
35.0108
32108.6
9.97231e+06
35.5864
44822.9
9.95551e+06
36.7379
57688.7
9.9349e+06
39.1573
70832.4
9.91071e+06
42.2383
84142.7
9.88235e+06
45.7409
98274.4
9.85066e+06
49.5728
112474
9.81494e+06
55.0213
127560
9.77563e+06
60.1935
142732
9.73241e+06
77.0878
158380
9.68474e+06
107.048
174711
9.63081e+06
244.717
191719
9.57254e+06
305.94
209418
9.50202e+06
828.654
231181
9.421e+06
674.737
252116
9.33814e+06
1117.88
271233
9.24639e+06
515.841
297416
9.14351e+06
537.88
320495
9.03234e+06
943.42
337037
8.9201e+06
1613.81
347513
8.80875e+06
2567.59
359467
8.69642e+06
4117.22
374814
8.5806e+06
4852.29
391018
8.4575e+06
6195.88
397280
8.31951e+06
8707.2
398897
8.15855e+06
11840.4
411289
7.98015e+06
14225.1
418162
7.78959e+06
13172.3
426245
7.58543e+06
11249
461228
7.38988e+06
13150.8
492858
7.21097e+06
19904.4
493077
7.04785e+06
26321.7
450923
6.92591e+06
19532.8
363401
6.82244e+06
-1821.57
351805
6.71941e+06
-15192.4
372568
6.61535e+06
-15515.8
358855
6.52429e+06
-8908.13
314136
6.47907e+06
-2196.47
208128
6.45309e+06
-9526.55
156043
6.4244e+06
-19579.2
150444
6.40421e+06
-23533.8
123000
6.4012e+06
-23818.7
74107.3
6.41091e+06
-23926.2
29804.3
6.43094e+06
-23714.9
-7387.6
6.46353e+06
-24413.5
-39652.9
6.50963e+06
-24723.7
-67642.6
6.57717e+06
-26636.3
-91646.3
6.66099e+06
-23489.2
-126779
6.71972e+06
-12845.3
-145903
6.76599e+06
-7558.12
-150899
6.81153e+06
-6922.71
-158197
-7995.11
-172208
9.99932e+06
6523.64
9.99423e+06
19404.7
9.98523e+06
32107.9
9.9723e+06
44821.8
9.95551e+06
57687
9.93489e+06
70830.3
9.91069e+06
84140.1
9.88233e+06
98270.8
9.85065e+06
112470
9.81492e+06
127555
9.77562e+06
142726
9.73247e+06
158371
9.68482e+06
174685
9.6314e+06
191667
9.57103e+06
209390
9.50039e+06
230451
9.42315e+06
253666
9.33882e+06
274726
9.24696e+06
296978
9.14571e+06
317181
9.03627e+06
332144
8.92584e+06
341007
8.81609e+06
351697
8.70279e+06
372354
8.58617e+06
389586
8.46325e+06
397934
8.32798e+06
410131
8.17778e+06
429450
8.01216e+06
440802
7.82388e+06
447033
7.61592e+06
474765
7.41824e+06
504328
7.24699e+06
503868
7.10962e+06
456399
7.00767e+06
368815
6.90623e+06
309765
6.81149e+06
274214
6.72205e+06
248729
6.64014e+06
221748
6.59284e+06
148828
6.55968e+06
97026.7
6.52093e+06
72631.4
6.49676e+06
29536.4
6.48896e+06
-17544.7
6.49328e+06
-60074.8
6.50806e+06
-97037.3
6.53481e+06
-129408
6.57494e+06
-154550
6.62698e+06
-178312
6.69699e+06
-202509
6.75156e+06
-197825
6.79324e+06
-194434
6.83927e+06
-199302
-219446
9.99894e+06
9.71564
8310.35
9.99384e+06
28.2036
24704.1
9.98502e+06
34.2906
41126.6
9.97235e+06
34.4096
57689.7
9.9557e+06
34.8914
74532.1
9.93515e+06
37.0767
91593.5
9.90995e+06
39.8913
109574
9.88052e+06
43.2994
127951
9.84645e+06
47.4017
146805
9.80769e+06
52.6431
166586
9.76377e+06
58.8109
186960
9.7141e+06
71.3897
208396
9.65836e+06
83.335
230831
9.59621e+06
144.191
254249
9.52623e+06
174.276
279828
9.4492e+06
641.006
308221
9.36096e+06
352.472
340522
9.26669e+06
280.744
365467
9.17989e+06
437.966
383882
9.09537e+06
855.858
404285
9.00535e+06
1218.18
425998
8.90803e+06
1284.18
443731
8.79896e+06
1210.11
467521
8.67891e+06
1554.55
493501
8.54842e+06
1169.64
520522
8.40328e+06
1132.77
541537
8.23635e+06
2853.81
563267
8.04083e+06
4434.64
602680
7.81166e+06
3346.1
644322
7.55805e+06
2934
677260
7.313e+06
3442.37
703115
7.0979e+06
5522.36
702662
6.91682e+06
10439.5
663620
6.79749e+06
17708.5
552343
6.7567e+06
16404.8
387429
6.70022e+06
-12120.5
419733
6.59782e+06
-27184.7
502799
6.47477e+06
-25573.1
512099
6.34762e+06
-20786
464037
6.28427e+06
-2746.31
275237
6.25166e+06
-5561.98
194183
6.2256e+06
-13665.7
189469
6.20794e+06
-14698.2
153057
6.20957e+06
-12510.5
83491.2
6.22514e+06
-10764.4
24675.1
6.2528e+06
-9707.64
-25248.5
6.29058e+06
-9214.4
-68126.4
6.34124e+06
-8325.44
-110155
6.40858e+06
-8055.79
-150774
6.48772e+06
-16270.6
-188940
6.57323e+06
-18166.3
-212465
6.65276e+06
-15984.8
-214686
6.72796e+06
-13848.1
-219554
-11694.2
-231181
9.99895e+06
8310.59
9.99384e+06
24704.5
9.98501e+06
41125.6
9.97234e+06
57688.3
9.95569e+06
74530.6
9.93514e+06
91591.6
9.90994e+06
109572
9.88051e+06
127948
9.84643e+06
146802
9.80769e+06
166583
9.76377e+06
186957
9.71411e+06
208389
9.65838e+06
230828
9.59637e+06
254202
9.5266e+06
279757
9.45026e+06
307879
9.3641e+06
340541
9.26877e+06
370531
9.18159e+06
384694
9.09751e+06
402221
9.00773e+06
423279
8.90878e+06
441410
8.79729e+06
464549
8.6769e+06
494430
8.54696e+06
520837
8.39901e+06
547200
8.22789e+06
584298
8.03179e+06
630190
7.80784e+06
668337
7.56289e+06
695135
7.33048e+06
710821
7.12777e+06
712732
6.95109e+06
690842
6.81739e+06
607549
6.75338e+06
448710
6.68066e+06
370962
6.59468e+06
335842
6.49281e+06
328230
6.39548e+06
300996
6.33731e+06
204785
6.29528e+06
133240
6.25821e+06
95019.9
6.23342e+06
38158.9
6.22945e+06
-26644.8
6.24149e+06
-82936.6
6.26761e+06
-132766
6.306e+06
-176952
6.36114e+06
-217885
6.42521e+06
-250192
6.50581e+06
-298873
6.58849e+06
-298674
6.66454e+06
-286094
6.7419e+06
-291037
-310415
9.99894e+06
9.75257
10081.1
9.99393e+06
28.7816
29920.1
9.9853e+06
34.5619
49954.7
9.9729e+06
34.4024
70275.3
9.95665e+06
34.6665
90981.3
9.93643e+06
36.7028
112026
9.91211e+06
39.3667
134123
9.88372e+06
42.4565
156581
9.85067e+06
46.1814
180101
9.81294e+06
50.5776
204587
9.77027e+06
56.6171
229936
9.72234e+06
64.0567
256671
9.66916e+06
79.3214
284399
9.60984e+06
92.5715
314006
9.54422e+06
181.547
345854
9.47236e+06
204.122
380514
9.39249e+06
931.437
420172
9.29498e+06
1062.15
462468
9.19188e+06
976.651
486245
9.09284e+06
1174.86
502400
8.99649e+06
1945.11
520674
8.89339e+06
1611.76
545541
8.77493e+06
419.757
585834
8.63791e+06
-374.236
631134
8.48347e+06
-2655.84
677843
8.30234e+06
-3702.31
726623
8.09366e+06
-1528.46
773707
7.86186e+06
367.454
834323
7.61144e+06
-1104.31
896071
7.35966e+06
-2003.99
931247
7.13175e+06
-456.25
931657
6.93337e+06
3367.07
897780
6.77447e+06
8290.54
814625
6.6834e+06
17491.2
626108
6.70107e+06
37887
332118
6.61392e+06
-36435.5
543585
6.4948e+06
-106468
730059
6.35259e+06
-113982
769571
6.20406e+06
-108614
722702
6.12543e+06
-66501.2
420101
6.09048e+06
-31376.1
260436
6.06256e+06
-29110.5
246052
6.06526e+06
-22432.3
172489
6.07391e+06
-20816.2
96334.5
6.09512e+06
-21214.5
25674.6
6.12981e+06
-20636.5
-38236.5
6.17699e+06
-20763.1
-93609.4
6.23464e+06
-22076.8
-144831
6.29281e+06
-21728.3
-186890
6.35217e+06
-28671.5
-218824
6.41871e+06
-29181.2
-249216
6.49937e+06
-30270.4
-263236
6.58112e+06
-29926.9
-270715
-24092.7
-275271
9.99896e+06
10080.5
9.99393e+06
29918.7
9.98529e+06
49953.5
9.9729e+06
70274.1
9.95664e+06
90979.8
9.93642e+06
112024
9.9121e+06
134121
9.8837e+06
156579
9.85066e+06
180099
9.81293e+06
204585
9.77026e+06
229934
9.72234e+06
256668
9.66918e+06
284395
9.60986e+06
313989
9.54439e+06
345819
9.47247e+06
380458
9.39443e+06
419981
9.30341e+06
462992
9.20091e+06
488474
9.0993e+06
505309
8.99928e+06
525526
8.8885e+06
554103
8.76397e+06
589704
8.62743e+06
630760
8.47026e+06
675519
8.28466e+06
729259
8.08167e+06
785889
7.86043e+06
851931
7.62163e+06
906172
7.37909e+06
935821
7.15619e+06
933406
6.96517e+06
907164
6.81988e+06
844601
6.74454e+06
700872
6.74391e+06
489988
6.70234e+06
379853
6.59032e+06
342912
6.45407e+06
350567
6.32219e+06
323280
6.24177e+06
217967
6.19374e+06
149802
6.15838e+06
101423
6.14804e+06
26792
6.15816e+06
-56659.9
6.18489e+06
-129820
6.22604e+06
-193450
6.27779e+06
-248438
6.3336e+06
-295109
6.39034e+06
-328142
6.4342e+06
-371052
6.48375e+06
-376847
6.54682e+06
-378735
6.61178e+06
-385357
-393337
9.99898e+06
9.1863
11800.4
9.99407e+06
27.4007
35024.8
9.98567e+06
33.192
58542.5
9.97367e+06
33.2536
82459.8
9.95808e+06
33.5859
106769
9.93847e+06
35.601
131841
9.915e+06
38.2079
157810
9.88741e+06
41.1928
184413
9.85548e+06
44.7476
212275
9.8192e+06
49.0356
241130
9.77797e+06
54.7952
271464
9.73195e+06
62.3004
303044
9.68073e+06
74.3302
336015
9.62418e+06
85.5133
371006
9.56254e+06
129.376
407955
9.49596e+06
195.288
447576
9.42659e+06
603.999
489718
9.35067e+06
1371.47
537889
9.2582e+06
2103.81
577343
9.1499e+06
1803.03
609686
9.0312e+06
2091.2
638024
8.90338e+06
474.8
673645
8.77459e+06
-1377.7
716333
8.63259e+06
-2697.4
776138
8.46042e+06
-5847.12
856157
8.2464e+06
-5881.5
946846
7.9991e+06
-2411.28
1.0237e+06
7.74714e+06
1678.25
1.08483e+06
7.49918e+06
1690.72
1.14255e+06
7.25956e+06
785.645
1.17028e+06
7.03626e+06
2055.23
1.1531e+06
6.8318e+06
7257.65
1.09553e+06
6.63754e+06
16530
992929
6.43885e+06
60797.1
765046
6.15166e+06
262661
359574
5.799e+06
159192
738508
5.57036e+06
18873.7
937687
5.55003e+06
-64744.3
849285
5.61725e+06
-142308
793168
5.67261e+06
-186275
550003
5.70108e+06
-109695
341680
5.74601e+06
-83965.3
287321
5.77479e+06
-53579.9
200473
5.81133e+06
-53924.2
116349
5.85719e+06
-56159.5
38462.2
5.90807e+06
-55020.9
-31441.2
5.96212e+06
-51546.6
-93849.8
6.0197e+06
-49769.8
-151457
6.07517e+06
-44251.8
-197615
6.12353e+06
-31528.7
-235355
6.16566e+06
-21934.7
-267717
6.21228e+06
-14229.5
-292699
6.25385e+06
-5749.06
-305076
11766.8
-326124
9.99899e+06
11800.6
9.99406e+06
35024.8
9.98566e+06
58540.5
9.97367e+06
82457.3
9.95807e+06
106767
9.93846e+06
131839
9.91499e+06
157807
9.8874e+06
184410
9.85547e+06
212272
9.8192e+06
241127
9.77797e+06
271461
9.73195e+06
303040
9.68074e+06
336011
9.62419e+06
370998
9.56261e+06
407951
9.49626e+06
447469
9.42768e+06
489723
9.35729e+06
535437
9.27116e+06
577468
9.16438e+06
614632
9.04318e+06
649467
8.91169e+06
686645
8.77232e+06
728149
8.61885e+06
781738
8.43871e+06
850017
8.22536e+06
936924
7.99771e+06
1.01128e+06
7.76253e+06
1.08894e+06
7.52055e+06
1.14999e+06
7.28335e+06
1.17396e+06
7.06722e+06
1.15171e+06
6.8812e+06
1.10073e+06
6.72651e+06
1.01657e+06
6.62635e+06
864819
6.78249e+06
604341
6.87333e+06
449630
6.78405e+06
447764
6.66246e+06
403878
6.53279e+06
308213
6.32407e+06
239588
6.16905e+06
195781
6.10972e+06
78396.7
6.11326e+06
-28623.6
6.11335e+06
-109118
6.10695e+06
-178191
6.09957e+06
-239894
6.09328e+06
-292806
6.08543e+06
-336566
6.08235e+06
-369260
6.08044e+06
-400402
6.09433e+06
-411610
6.1137e+06
-411074
6.1289e+06
-404534
-402007
9.99902e+06
9.08564
13455.4
9.9943e+06
27.6661
39929.7
9.98626e+06
33.1537
66767.3
9.97479e+06
33.0274
94109.3
9.95988e+06
33.2105
121861
9.94111e+06
35.0709
150811
9.91862e+06
37.5539
180516
9.89212e+06
40.4011
211141
9.86161e+06
43.7706
243025
9.82629e+06
47.8543
276701
9.78675e+06
53.2806
311297
9.74241e+06
61.0235
347714
9.69305e+06
71.0526
385768
9.63893e+06
85.4844
425570
9.58015e+06
105.77
467227
9.51732e+06
178.292
510895
9.45108e+06
292.248
556456
9.38457e+06
777.217
604605
9.31104e+06
715.371
651354
9.22456e+06
-82.7873
697669
9.11893e+06
-106.645
745342
8.9878e+06
-592.007
806839
8.84155e+06
-1874.95
865321
8.68938e+06
-5347.94
934051
8.51207e+06
-9323.73
1.04312e+06
8.28905e+06
-10028.4
1.18025e+06
8.02354e+06
-1579.35
1.29117e+06
7.74376e+06
5771.16
1.35921e+06
7.4737e+06
4963.29
1.40798e+06
7.21845e+06
2684.9
1.42313e+06
6.98683e+06
5262.58
1.37981e+06
6.76769e+06
11039.1
1.30406e+06
6.48865e+06
28388.7
1.24431e+06
5.80166e+06
165548
1.28742e+06
5.0211e+06
225785
918038
5.00305e+06
8409.15
748156
4.98049e+06
34647
921868
4.82345e+06
100677
898939
4.82951e+06
53914
728034
4.89133e+06
-36363.8
520679
5.0071e+06
-47544.6
273755
5.09693e+06
12646
186288
5.14525e+06
42356.8
110614
5.19181e+06
47479.5
22553.9
5.23502e+06
54907.1
-59872.1
5.26735e+06
68132.5
-132556
5.2882e+06
83254.1
-198684
5.2993e+06
97497.1
-260900
5.30847e+06
110665
-318562
5.3208e+06
123212
-371755
5.34168e+06
130481
-418569
5.37881e+06
133611
-462988
5.42672e+06
138336
-489072
132656
-545494
9.99903e+06
13454.5
9.9943e+06
39927.3
9.98625e+06
66765
9.97478e+06
94107
9.95988e+06
121858
9.9411e+06
150808
9.91861e+06
180512
9.89211e+06
211137
9.8616e+06
243021
9.82629e+06
276698
9.78675e+06
311293
9.74242e+06
347710
9.69306e+06
385764
9.63895e+06
425563
9.5802e+06
467222
9.51749e+06
510825
9.45167e+06
556403
9.38495e+06
603648
9.31273e+06
651263
9.22881e+06
699469
9.1285e+06
750773
9.00559e+06
810116
8.85143e+06
881322
8.68306e+06
945106
8.48842e+06
1.03563e+06
8.25827e+06
1.1573e+06
8.01074e+06
1.2575e+06
7.75902e+06
1.34664e+06
7.50243e+06
1.41176e+06
7.25146e+06
1.42783e+06
7.02441e+06
1.38429e+06
6.82882e+06
1.3078e+06
6.64335e+06
1.23095e+06
6.4825e+06
1.19606e+06
5.97047e+06
1.34402e+06
5.25036e+06
1.17633e+06
4.8876e+06
841192
4.80702e+06
581247
4.74945e+06
416194
4.68581e+06
265070
4.6698e+06
163909
4.67097e+06
89997.4
4.68673e+06
-2147.54
4.71395e+06
-89667.1
4.75175e+06
-162379
4.79945e+06
-220811
4.85588e+06
-267290
4.91932e+06
-303878
4.99143e+06
-332003
5.06765e+06
-354146
5.15559e+06
-369189
5.25662e+06
-377433
5.36959e+06
-379001
-382190
9.99907e+06
8.21346
15015.6
9.99461e+06
25.349
44564.7
9.98701e+06
30.6274
74540.7
9.97618e+06
30.6795
105120
9.96198e+06
30.9357
136231
9.9443e+06
32.7581
168679
9.92317e+06
35.1274
201854
9.89789e+06
37.7614
236638
9.86854e+06
40.8611
272601
9.8352e+06
44.6097
310277
9.79717e+06
49.8221
349603
9.75455e+06
57.2791
390648
9.70724e+06
67.2941
433459
9.65512e+06
80.3502
478134
9.59851e+06
95.762
524319
9.53773e+06
131.122
572194
9.47361e+06
163.09
621179
9.40739e+06
256.799
671487
9.3374e+06
-22.893
722485
9.26193e+06
-549.403
774986
9.17749e+06
-946.589
832175
9.08271e+06
-313.408
903519
8.96024e+06
547.427
988798
8.80803e+06
-3770.39
1.09097e+06
8.63688e+06
-10275.5
1.22497e+06
8.4435e+06
-12491.2
1.38651e+06
8.20919e+06
-2446.79
1.52855e+06
7.90699e+06
9639.87
1.65286e+06
7.57029e+06
12387.9
1.73338e+06
7.25329e+06
3740.35
1.73739e+06
6.99904e+06
3443.51
1.63128e+06
6.79096e+06
6908.43
1.50564e+06
6.60243e+06
4905.49
1.428e+06
6.41922e+06
47330.9
1.42367e+06
5.42492e+06
192986
1.71858e+06
4.48077e+06
256002
1.43356e+06
4.04121e+06
225323
1.13107e+06
3.91266e+06
190944
830609
3.8346e+06
178248
621219
3.76294e+06
159739
427906
3.68825e+06
135237
209791
3.69425e+06
135149
41880.3
3.73246e+06
142267
-73654.4
3.78474e+06
146073
-180761
3.85782e+06
147500
-286312
3.95652e+06
146884
-383638
4.08178e+06
142897
-471445
4.23188e+06
135402
-550210
4.40497e+06
125057
-619783
4.59787e+06
112913
-679947
4.80816e+06
99344.8
-730222
5.03102e+06
85585
-771700
5.27109e+06
71215.6
-800998
51216
-831187
9.99908e+06
15015.8
9.99461e+06
44564.5
9.98701e+06
74538
9.97617e+06
105116
9.96198e+06
136227
9.9443e+06
168675
9.92316e+06
201850
9.89788e+06
236634
9.86853e+06
272597
9.83519e+06
310273
9.79717e+06
349599
9.75456e+06
390643
9.70725e+06
433454
9.65513e+06
478126
9.59854e+06
524309
9.5378e+06
572164
9.47376e+06
621138
9.40701e+06
671318
9.3366e+06
722427
9.2612e+06
775222
9.17846e+06
833572
9.08681e+06
902587
8.9724e+06
997396
8.8184e+06
1.09612e+06
8.62523e+06
1.21921e+06
8.40375e+06
1.36671e+06
8.14101e+06
1.51858e+06
7.86889e+06
1.62892e+06
7.59692e+06
1.69657e+06
7.31272e+06
1.71636e+06
7.03982e+06
1.66137e+06
6.8147e+06
1.54034e+06
6.60998e+06
1.44182e+06
6.4023e+06
1.45135e+06
6.34858e+06
1.58805e+06
6.13744e+06
1.64116e+06
5.75557e+06
1.44605e+06
5.39443e+06
1.13047e+06
5.12484e+06
861245
4.91398e+06
633537
4.77329e+06
438257
4.71725e+06
279488
4.71096e+06
143999
4.73599e+06
28267.2
4.78787e+06
-70001.5
4.86368e+06
-152675
4.95931e+06
-222521
5.07078e+06
-282040
5.19504e+06
-332911
5.32961e+06
-377124
5.47286e+06
-413773
5.62517e+06
-444707
5.78034e+06
-463364
-482062
9.99914e+06
8.03793
16470.7
9.99499e+06
25.4889
48879.1
9.98792e+06
30.408
81774.6
9.97783e+06
30.2692
115372
9.9646e+06
30.3802
149625
9.94809e+06
32.0151
185369
9.92811e+06
34.2052
222025
9.90456e+06
36.6859
260394
9.8769e+06
39.6241
300477
9.84516e+06
43.248
342243
9.80922e+06
48.284
385798
9.76846e+06
55.5443
431712
9.7229e+06
65.3573
479382
9.67275e+06
77.0092
528700
9.61779e+06
89.1508
579752
9.55863e+06
104.675
631870
9.49561e+06
118.498
684790
9.42992e+06
136.887
737873
9.3624e+06
85.6641
790910
9.29331e+06
-5.81758
845257
9.22289e+06
-126.064
903998
9.15189e+06
316.973
975607
9.07187e+06
1244.21
1.06926e+06
8.95818e+06
7104.45
1.19925e+06
8.80786e+06
3712.06
1.37263e+06
8.64839e+06
-3589.51
1.55007e+06
8.46614e+06
-5433.36
1.71771e+06
8.22609e+06
-1117.31
1.89641e+06
7.91693e+06
11574.1
2.03364e+06
7.53752e+06
19511.7
2.10007e+06
7.12427e+06
16126.1
2.03059e+06
6.75314e+06
2587.3
1.8757e+06
6.46711e+06
-3852.68
1.71813e+06
6.25217e+06
-1098.67
1.63848e+06
6.13527e+06
70080.2
1.76153e+06
5.72978e+06
83603.7
1.75304e+06
5.23139e+06
59793.7
1.56846e+06
4.77728e+06
53130.5
1.22991e+06
4.44178e+06
57924
896181
4.22589e+06
56028
584903
4.09902e+06
42447.1
291032
4.06726e+06
30930.2
39006.3
4.12463e+06
25374.7
-160759
4.24665e+06
18883.3
-326436
4.41546e+06
9178.13
-468649
4.61768e+06
-2230.35
-587263
4.83991e+06
-13861.7
-682669
5.07125e+06
-25467.5
-758203
5.30362e+06
-36691
-817091
5.53126e+06
-47085.5
-861930
5.74966e+06
-56338.7
-893548
5.95785e+06
-65910.7
-915207
6.15596e+06
-74855.1
-925104
-89127.3
-924989
9.99915e+06
16469.6
9.99499e+06
48876
9.98792e+06
81771.5
9.97783e+06
115369
9.9646e+06
149622
9.94808e+06
185365
9.9281e+06
222021
9.90455e+06
260389
9.87689e+06
300473
9.84515e+06
342238
9.80922e+06
385793
9.76846e+06
431706
9.72291e+06
479376
9.67276e+06
528692
9.6178e+06
579743
9.55865e+06
631855
9.49563e+06
684769
9.42985e+06
737820
9.36218e+06
790866
9.29295e+06
845242
9.22296e+06
904314
9.15216e+06
974717
9.082e+06
1.07001e+06
8.99181e+06
1.19497e+06
8.85089e+06
1.36523e+06
8.66639e+06
1.54867e+06
8.42284e+06
1.75807e+06
8.12943e+06
1.92225e+06
7.82724e+06
2.01139e+06
7.51843e+06
2.04619e+06
7.17521e+06
2.02255e+06
6.80538e+06
1.91428e+06
6.4462e+06
1.79728e+06
6.15143e+06
1.74356e+06
6.05769e+06
1.7501e+06
6.03636e+06
1.74519e+06
5.94094e+06
1.60097e+06
5.77829e+06
1.34562e+06
5.62041e+06
1.07584e+06
5.49241e+06
815980
5.40399e+06
567137
5.36612e+06
345841
5.3741e+06
158697
5.41799e+06
683.913
5.4885e+06
-133534
5.57926e+06
-247373
5.68471e+06
-343094
5.79929e+06
-423016
5.91757e+06
-488611
6.03582e+06
-543205
6.14901e+06
-584102
6.26161e+06
-624100
6.35563e+06
-632957
-685369
9.99921e+06
6.95032
17793
9.99544e+06
22.5113
52812.4
9.98898e+06
27.0391
88378.7
9.97976e+06
26.9943
124744
9.96765e+06
27.0926
161894
9.95248e+06
28.6281
200702
9.93407e+06
30.6879
240612
9.91218e+06
33.0252
282470
9.88654e+06
35.7585
326316
9.85686e+06
39.181
372133
9.82284e+06
43.7921
420055
9.78428e+06
50.6281
470550
9.74082e+06
59.5378
523180
9.69215e+06
70.0729
577765
9.63852e+06
80.3313
633822
9.58003e+06
90.3945
690847
9.51757e+06
100.875
747775
9.45232e+06
112.196
803733
9.38652e+06
127.172
857435
9.32346e+06
77.0735
909231
9.26756e+06
66.0331
960925
9.22192e+06
-270.615
1.02279e+06
9.18501e+06
264.002
1.10727e+06
9.13884e+06
7729.25
1.23984e+06
9.04156e+06
15768.4
1.45599e+06
8.88577e+06
11240
1.69577e+06
8.67335e+06
-112.929
1.93169e+06
8.43616e+06
-4199.39
2.13916e+06
8.17746e+06
1731.33
2.29229e+06
7.87856e+06
8899.31
2.39216e+06
7.48817e+06
6222.88
2.4173e+06
7.00527e+06
-114.718
2.36102e+06
6.52373e+06
-65.5818
2.20082e+06
6.11e+06
-7597.52
2.05839e+06
5.90502e+06
4232.47
1.96051e+06
5.76298e+06
8923.46
1.88626e+06
5.59826e+06
17506.4
1.71693e+06
5.38342e+06
17768.1
1.42733e+06
5.18688e+06
8126.84
1.0833e+06
5.05308e+06
-11296
727209
4.99275e+06
-36222.1
383683
5.00487e+06
-58912.8
81344.1
5.07915e+06
-75268.4
-163783
5.19622e+06
-88359.9
-358075
5.33883e+06
-99044.6
-514150
5.49426e+06
-106563
-637228
5.65243e+06
-111022
-730285
5.80609e+06
-113897
-798154
5.95083e+06
-116426
-845814
6.08596e+06
-120068
-877860
6.20911e+06
-123560
-894155
6.3292e+06
-133102
-903338
6.42867e+06
-133055
-892629
-161953
-896030
9.99922e+06
17793.2
9.99543e+06
52812.1
9.98898e+06
88375.5
9.97976e+06
124740
9.96764e+06
161890
9.95247e+06
200698
9.93406e+06
240607
9.91217e+06
282465
9.88653e+06
326311
9.85685e+06
372128
9.82284e+06
420050
9.78429e+06
470544
9.74083e+06
523174
9.69216e+06
577757
9.63853e+06
633813
9.58004e+06
690836
9.51759e+06
747761
9.45233e+06
803704
9.38649e+06
857424
9.32333e+06
909168
9.26704e+06
961448
9.22057e+06
1.02183e+06
9.18596e+06
1.10616e+06
9.15472e+06
1.23544e+06
9.0933e+06
1.44377e+06
8.95011e+06
1.70444e+06
8.73729e+06
1.97144e+06
8.4727e+06
2.18338e+06
8.16922e+06
2.31774e+06
7.83667e+06
2.38911e+06
7.46047e+06
2.40675e+06
7.01687e+06
2.35921e+06
6.54596e+06
2.26857e+06
6.11484e+06
2.16616e+06
5.81095e+06
2.05744e+06
5.64719e+06
1.91823e+06
5.55989e+06
1.70643e+06
5.49704e+06
1.42632e+06
5.46097e+06
1.11905e+06
5.45494e+06
808723
5.47273e+06
510625
5.51281e+06
244363
5.57327e+06
20868
5.648e+06
-163923
5.73222e+06
-317620
5.82051e+06
-442459
5.90678e+06
-540285
5.98549e+06
-615500
6.05392e+06
-673619
6.11405e+06
-723983
6.17119e+06
-765665
6.24422e+06
-831090
6.32016e+06
-842266
-1.04184e+06
9.9993e+06
6.73549
18974.7
9.99595e+06
22.606
56316.6
9.9902e+06
26.787
94263.4
9.98197e+06
26.5746
133114
9.97113e+06
26.5507
172878
9.95751e+06
27.9217
214472
9.9407e+06
29.8522
257587
9.92083e+06
32.0967
302519
9.89761e+06
34.7725
349718
9.87028e+06
38.072
399652
9.83849e+06
42.526
452074
9.8022e+06
48.9598
507097
9.76072e+06
57.3546
564978
9.71393e+06
67.2353
624922
9.66114e+06
76.897
687021
9.60272e+06
85.271
749717
9.53909e+06
93.2612
811894
9.47209e+06
99.7569
871284
9.40493e+06
111.687
925230
9.34384e+06
95.5261
971091
9.29808e+06
78.1769
1.0076e+06
9.27884e+06
330.234
1.04259e+06
9.28915e+06
1137.52
1.09688e+06
9.33039e+06
2743.8
1.1978e+06
9.31433e+06
9198.65
1.4647e+06
9.16224e+06
9353.66
1.83995e+06
8.91001e+06
1304.68
2.1827e+06
8.62327e+06
-2769.99
2.4291e+06
8.32703e+06
-1644.99
2.59121e+06
8.01828e+06
694.38
2.70173e+06
7.66892e+06
-936.056
2.76956e+06
7.25465e+06
-5332.73
2.78272e+06
6.76098e+06
-15265.9
2.71075e+06
6.25461e+06
-20335.4
2.58453e+06
5.82476e+06
-18220.2
2.4077e+06
5.53546e+06
-9739.27
2.18544e+06
5.35415e+06
-193.088
1.89944e+06
5.23069e+06
2327.16
1.54941e+06
5.15825e+06
-3762.22
1.15886e+06
5.14352e+06
-17556.8
757140
5.18005e+06
-34674.2
378655
5.25384e+06
-50478.5
54958.4
5.35161e+06
-62434
-201495
5.46396e+06
-70884.1
-400884
5.58284e+06
-76504.7
-556610
5.70083e+06
-80848.4
-673477
5.81236e+06
-85683.8
-754987
5.91531e+06
-93072.6
-807308
6.01077e+06
-103946
-837413
6.10482e+06
-119306
-853192
6.2005e+06
-133603
-857154
6.31715e+06
-155816
-864679
6.41919e+06
-145272
-849041
-193617
-888601
9.99931e+06
18973.4
9.99594e+06
56313
9.9902e+06
94259.7
9.98196e+06
133110
9.97112e+06
172874
9.9575e+06
214467
9.94069e+06
257582
9.92082e+06
302513
9.8976e+06
349713
9.87028e+06
399647
9.83849e+06
452069
9.80221e+06
507090
9.76073e+06
564970
9.71394e+06
624913
9.66115e+06
687010
9.60273e+06
749704
9.5391e+06
811881
9.47209e+06
871262
9.40491e+06
925230
9.34375e+06
971022
9.29772e+06
1.00824e+06
9.27921e+06
1.04159e+06
9.29609e+06
1.09133e+06
9.33889e+06
1.19642e+06
9.32967e+06
1.4638e+06
9.18971e+06
1.8537e+06
8.95806e+06
2.20451e+06
8.68556e+06
2.45329e+06
8.38621e+06
2.61599e+06
8.05349e+06
2.7235e+06
7.67731e+06
2.78331e+06
7.24393e+06
2.78848e+06
6.76083e+06
2.73671e+06
6.27191e+06
2.63425e+06
5.83227e+06
2.47839e+06
5.48626e+06
2.25467e+06
5.24162e+06
1.95173e+06
5.08872e+06
1.58177e+06
5.02382e+06
1.17936e+06
5.03826e+06
775075
5.10494e+06
407363
5.19729e+06
99750.7
5.2999e+06
-145369
5.40404e+06
-339248
5.50165e+06
-491195
5.58613e+06
-606718
5.65864e+06
-697366
5.73068e+06
-779990
5.82375e+06
-870743
5.96336e+06
-983451
6.1823e+06
-1.11867e+06
6.49368e+06
-1.29831e+06
6.93562e+06
-1.42927e+06
-1.80654e+06
9.9994e+06
5.49196
19985.7
9.99652e+06
19.1322
59328.1
9.99158e+06
22.7949
99333.6
9.98447e+06
22.6279
140343
9.97487e+06
22.5434
182603
9.9632e+06
23.7622
226280
9.94864e+06
25.5139
272296
9.9311e+06
27.5366
320214
9.91004e+06
29.9573
370945
9.88546e+06
32.8626
424404
9.85669e+06
36.9089
481048
9.82299e+06
42.5131
541033
9.78403e+06
50.1189
604215
9.73875e+06
58.724
670530
9.68686e+06
67.4839
739286
9.62768e+06
75.2283
809300
9.56111e+06
80.0188
878898
9.48839e+06
88.3437
944479
9.41313e+06
82.8551
1.00102e+06
9.344e+06
140.436
1.0408e+06
9.29755e+06
162.686
1.05467e+06
9.29627e+06
1355.2
1.04373e+06
9.38232e+06
3242.58
1.00874e+06
9.58128e+06
4012.36
996351
9.64528e+06
9546.05
1.39308e+06
9.46984e+06
7996.5
2.00579e+06
9.16351e+06
834.459
2.48723e+06
8.81456e+06
-1972.91
2.78083e+06
8.46603e+06
631.484
2.94106e+06
8.11148e+06
2642