/*--------------------------------*- C++ -*----------------------------------*\
| =========                 |                                                 |
| \\      /  F ield         | OpenFOAM: The Open Source CFD Toolbox           |
|  \\    /   O peration     | Version:  4.1                                   |
|   \\  /    A nd           | Web:      www.OpenFOAM.org                      |
|    \\/     M anipulation  |                                                 |
\*---------------------------------------------------------------------------*/
FoamFile
{
    version     2.0;
    format      ascii;
    class       volVectorField;
    location    "99";
    object      U;
}
// * * * * * * * * * * * * * * * * * * * * * * * * * * * * * * * * * * * * * //

dimensions      [0 1 -1 0 0 0 0];

internalField   nonuniform List<vector> 
4432
(
(39.982 1.50959e-05 0.0496975)
(39.9202 7.56125e-05 0.088062)
(39.826 0.00012955 0.114847)
(39.6968 0.000150665 0.140539)
(39.5325 0.000154899 0.167442)
(39.3339 0.000169992 0.195811)
(39.0999 0.000185889 0.22588)
(38.8295 0.000185 0.257086)
(38.5212 0.000180646 0.289384)
(38.1744 0.000170956 0.322202)
(37.7894 0.000165325 0.353723)
(37.3678 0.000212832 0.384498)
(36.9131 3.0847e-05 0.408357)
(36.4419 -6.52419e-05 0.425453)
(35.9584 -0.00281342 0.41719)
(35.5734 -0.00680012 0.363612)
(35.2527 -0.00596336 0.41018)
(35.1377 -0.00362019 0.332126)
(35.2219 -0.00184423 0.254407)
(35.1936 0.0019155 0.39912)
(34.9619 -0.00126326 0.500508)
(34.6099 -0.0110672 0.621449)
(34.1528 -0.0214953 0.694247)
(33.6287 -0.0304863 0.682519)
(33.0389 -0.0375126 0.665113)
(32.4059 -0.0432814 0.545018)
(31.8105 -0.0401998 0.35563)
(31.2749 -0.0273671 0.160456)
(30.8287 -0.0211658 0.100526)
(30.4479 -0.0301953 0.154548)
(30.0581 -0.0542098 0.339372)
(29.5591 -0.0821334 0.674834)
(28.8557 -0.0930109 0.877976)
(28.0061 -0.0692154 0.603042)
(27.261 -0.0271822 -0.089951)
(26.6336 0.00270938 -0.469287)
(26.0991 0.0146745 -0.41318)
(25.5805 0.0137579 -0.340263)
(25.1255 0.00660655 -0.279203)
(24.8022 0.000845907 -0.218687)
(24.625 0.00231089 -0.241962)
(24.4966 0.0103231 -0.364268)
(24.4065 0.0168837 -0.372701)
(24.3591 0.023206 -0.361044)
(24.3602 0.0302255 -0.376218)
(24.4209 0.0334148 -0.387686)
(24.5405 0.0368192 -0.391997)
(24.6936 0.0432836 -0.385168)
(24.9071 0.0486845 -0.37252)
(25.1189 0.0666692 -0.402749)
(25.4174 0.0639695 -0.309148)
(25.7321 0.0403084 -0.194303)
(25.9722 0.0257686 -0.225947)
(26.4196 0.0218703 -0.227051)
(39.982 1.50955e-05 0.0496999)
(39.9202 7.56191e-05 0.0880778)
(39.826 0.000129545 0.114946)
(39.6967 0.000150669 0.140608)
(39.5324 0.000154898 0.167421)
(39.3338 0.000169996 0.195799)
(39.0999 0.000185886 0.225771)
(38.8295 0.00018515 0.256904)
(38.5211 0.000180351 0.289205)
(38.1745 0.000169966 0.321896)
(37.7895 0.000164182 0.353667)
(37.3677 0.000211494 0.384312)
(36.9133 3.00276e-05 0.409357)
(36.4368 -6.84605e-05 0.425807)
(35.9559 -0.00279817 0.424154)
(35.5238 -0.00686264 0.373811)
(35.1977 -0.00603898 0.360623)
(35.1203 -0.00364932 0.287747)
(35.2092 -0.00183214 0.246698)
(35.2091 0.00182181 0.410361)
(34.9799 -0.00137074 0.486642)
(34.6265 -0.0111352 0.539192)
(34.1806 -0.0216066 0.576642)
(33.6542 -0.0308832 0.567076)
(33.0468 -0.0383096 0.556154)
(32.3798 -0.0450094 0.426424)
(31.7289 -0.0436235 0.250903)
(31.1498 -0.0315724 0.135784)
(30.6451 -0.025879 0.0748606)
(30.1777 -0.036908 -0.000614807)
(29.7757 -0.0621643 -0.0888704)
(29.3261 -0.0959477 -0.0609292)
(28.7452 -0.111751 0.192993)
(27.9226 -0.0914483 0.429209)
(27.1104 -0.0451204 0.246199)
(26.3459 -0.0122706 -0.0225573)
(25.7029 0.00302471 0.00825389)
(25.1007 0.00486404 -0.0402582)
(24.5791 0.00029554 -0.0515581)
(24.1501 -0.00265113 -0.0287192)
(23.8841 0.000582152 -0.0349377)
(23.6763 0.00929933 -0.0957727)
(23.5175 0.0174045 -0.0972492)
(23.4176 0.025375 -0.118204)
(23.4059 0.0333594 -0.145931)
(23.4743 0.037947 -0.196192)
(23.6109 0.0413708 -0.170752)
(23.8188 0.0468775 -0.122486)
(24.0733 0.0543236 -0.0823369)
(24.3016 0.0735905 -0.133302)
(24.8669 0.0553647 -0.225828)
(25.2684 0.0312189 -0.211724)
(25.5584 0.0170112 -0.244818)
(26.0832 0.0149113 -0.192239)
(40.0071 1.32649e-05 0.0167)
(40.0322 6.70464e-05 0.0519994)
(40.0583 0.000111955 0.0884842)
(40.0813 0.000125619 0.125236)
(40.1017 0.000132398 0.162505)
(40.1206 0.000152369 0.200819)
(40.1379 0.000176394 0.240411)
(40.1523 0.000190302 0.281371)
(40.1627 0.000186446 0.323746)
(40.1679 0.000189555 0.367391)
(40.1666 0.000203385 0.411785)
(40.155 0.000174276 0.45521)
(40.1294 0.000343411 0.49534)
(40.0731 0.000257046 0.522525)
(39.9869 0.00369815 0.542079)
(39.7359 0.00564126 0.515775)
(39.4462 0.00733194 0.398923)
(38.7894 0.00723619 0.321325)
(37.8793 -0.000695341 0.361618)
(37.1154 -0.002757 0.419522)
(36.4606 9.80845e-05 0.489334)
(35.8797 0.0036123 0.577723)
(35.3762 0.0068782 0.669252)
(34.8903 0.00966834 0.769724)
(34.4198 0.0111307 0.850325)
(33.955 0.0125377 0.872616)
(33.4789 0.014159 0.849234)
(32.9661 0.0202263 0.820614)
(32.3643 0.0330043 0.789109)
(31.7466 0.0394128 0.752606)
(31.1333 0.0410404 0.769727)
(30.5153 0.0379416 0.903621)
(29.9826 0.029577 1.00994)
(29.5714 0.0124249 1.00169)
(29.2051 -0.016255 0.972053)
(28.8486 -0.054994 1.04982)
(28.5196 -0.0906245 1.0964)
(28.2009 -0.110133 1.06016)
(27.8536 -0.103698 0.930318)
(27.4924 -0.0788189 0.709291)
(27.1598 -0.0726885 0.508484)
(26.9796 -0.0902074 0.41106)
(26.8256 -0.105392 0.3428)
(26.687 -0.118107 0.256025)
(26.6288 -0.127811 0.161134)
(26.6512 -0.133588 0.0741764)
(26.7238 -0.140362 0.000988788)
(26.8323 -0.144085 -0.060377)
(26.9197 -0.143088 -0.117452)
(27.0571 -0.187869 -0.123127)
(27.1893 -0.15457 -0.31056)
(27.3882 -0.120701 -0.414348)
(27.622 -0.0894601 -0.439996)
(27.9743 -0.0603201 -0.427344)
(40.0071 1.32649e-05 0.0166971)
(40.0322 6.70466e-05 0.0519878)
(40.0584 0.000111955 0.0884632)
(40.0813 0.000125619 0.125207)
(40.1017 0.000132398 0.162477)
(40.1206 0.000152375 0.200791)
(40.1379 0.000176382 0.240388)
(40.1522 0.000190361 0.281341)
(40.1626 0.000186154 0.323727)
(40.1677 0.000188508 0.367348)
(40.1665 0.000200923 0.411719)
(40.1549 0.00017707 0.455346)
(40.129 0.000321908 0.495151)
(40.0776 0.000340985 0.525437)
(39.9871 0.00331345 0.535254)
(39.8065 0.00550809 0.505456)
(39.5012 0.00790421 0.416488)
(38.8275 0.00744351 0.311923)
(37.8966 -0.000700695 0.345733)
(37.1096 -0.00258631 0.41056)
(36.4727 0.000198324 0.470201)
(35.8966 0.00375318 0.547851)
(35.3932 0.00715435 0.625266)
(34.9161 0.0103178 0.710329)
(34.4567 0.0121559 0.783505)
(34.0152 0.014525 0.803852)
(33.5566 0.0181208 0.812555)
(33.0517 0.0238589 0.822955)
(32.5192 0.0334517 0.788309)
(31.9976 0.0448668 0.711616)
(31.4183 0.0571265 0.689569)
(30.736 0.0666506 0.800406)
(30.0709 0.053892 0.888658)
(29.6033 0.0277353 0.914887)
(29.2479 -0.0117357 0.907609)
(29.0006 -0.0560766 0.949464)
(28.7733 -0.0943084 0.977526)
(28.558 -0.114697 0.94942)
(28.3175 -0.114735 0.852767)
(28.1348 -0.101455 0.691168)
(27.941 -0.0924192 0.504654)
(27.8529 -0.100943 0.390343)
(27.7653 -0.1132 0.313042)
(27.688 -0.121647 0.225579)
(27.6453 -0.128575 0.127539)
(27.663 -0.132209 0.0374252)
(27.7225 -0.136773 -0.0388707)
(27.7744 -0.14232 -0.118653)
(27.8146 -0.155721 -0.19443)
(27.8742 -0.180818 -0.218856)
(27.6227 -0.114214 -0.413053)
(27.7669 -0.0959157 -0.549414)
(27.9811 -0.07024 -0.557467)
(28.2661 -0.0424876 -0.545089)
(39.9993 1.23294e-05 0.0236475)
(39.9898 6.41513e-05 0.0678661)
(39.9637 0.000109963 0.109251)
(39.9196 0.000123975 0.148963)
(39.8594 0.000128683 0.188357)
(39.7844 0.000146295 0.228391)
(39.6945 0.000165838 0.269585)
(39.5895 0.000170641 0.312292)
(39.4693 0.000162099 0.356804)
(39.334 0.00015815 0.403246)
(39.184 0.000163849 0.45155)
(39.0187 0.000205481 0.501413)
(38.8361 0.000267047 0.552514)
(38.6357 0.000604611 0.604285)
(38.4022 0.000836029 0.659843)
(38.1764 0.00222598 0.728469)
(37.8472 0.00274997 0.770651)
(37.5101 0.00434654 0.880808)
(37.1698 0.00208889 1.04029)
(36.7838 0.00164775 1.14618)
(36.3473 0.00276282 1.19291)
(35.8905 0.00478957 1.21272)
(35.4446 0.00753869 1.24321)
(34.9962 0.0116469 1.28723)
(34.5429 0.013993 1.33084)
(34.0771 0.0176258 1.33118)
(33.5621 0.0245006 1.29537)
(32.9717 0.0344859 1.28307)
(32.2848 0.0433166 1.2373)
(31.55 0.0396621 1.21689)
(30.7445 0.0348133 1.34003)
(29.9159 0.0391827 1.52466)
(29.199 0.0558043 1.61141)
(28.5132 0.080955 1.55981)
(27.8579 0.0922352 1.30807)
(27.4947 0.0192212 1.21665)
(27.1002 -0.054026 1.22)
(26.6971 -0.0785815 1.09655)
(26.2524 -0.0685812 0.972614)
(25.963 -0.031872 0.690076)
(25.8113 -0.043279 0.536515)
(25.7497 -0.0796214 0.510179)
(25.681 -0.100048 0.386768)
(25.6061 -0.105394 0.209385)
(25.5998 -0.107443 0.0427625)
(25.6677 -0.10656 -0.0991473)
(25.7772 -0.108081 -0.212826)
(25.9386 -0.107462 -0.310295)
(26.1225 -0.114368 -0.339356)
(26.4922 -0.0954639 -0.508876)
(26.7909 -0.049735 -0.557697)
(26.9711 -0.035706 -0.514065)
(27.1176 -0.0343255 -0.507255)
(27.4397 -0.035687 -0.559794)
(39.9994 1.23294e-05 0.0236463)
(39.9898 6.41514e-05 0.0678616)
(39.9637 0.000109963 0.109245)
(39.9196 0.000123976 0.148957)
(39.8594 0.000128684 0.188348)
(39.7843 0.000146296 0.228378)
(39.6945 0.00016584 0.269568)
(39.5894 0.000170639 0.312264)
(39.4692 0.000162119 0.356775)
(39.334 0.000158015 0.403209)
(39.1839 0.000163364 0.451515)
(39.0187 0.000205119 0.501421)
(38.8366 0.000265914 0.552433)
(38.6354 0.000605159 0.604178)
(38.4082 0.000834544 0.657434)
(38.1558 0.00219269 0.721073)
(37.8578 0.00241771 0.788885)
(37.5166 0.00460725 0.885841)
(37.1682 0.00220652 1.03418)
(36.7892 0.00171298 1.13314)
(36.3597 0.00286655 1.17475)
(35.9098 0.00497241 1.18699)
(35.4715 0.00792525 1.20735)
(35.0251 0.0126732 1.26168)
(34.566 0.0155515 1.31116)
(34.0995 0.0198206 1.31734)
(33.5855 0.0277205 1.31239)
(33.0149 0.0385797 1.3228)
(32.3953 0.0484343 1.302)
(31.7063 0.0506508 1.26212)
(30.8639 0.0447724 1.37735)
(30.0265 0.0460556 1.55867)
(29.3024 0.0663904 1.59469)
(28.6998 0.087389 1.43262)
(28.2049 0.078305 1.19565)
(27.8049 0.0286338 0.981718)
(27.445 -0.0190152 0.815612)
(27.0773 -0.0440626 0.668038)
(26.7169 -0.0406401 0.52252)
(26.4551 -0.0151294 0.295265)
(26.2323 -0.0241764 0.210881)
(26.1478 -0.0520475 0.145633)
(26.0614 -0.0701617 0.00482106)
(25.9683 -0.0787075 -0.161799)
(25.9385 -0.0827186 -0.319745)
(25.9872 -0.0826627 -0.453942)
(26.0761 -0.0827683 -0.565058)
(26.2074 -0.0827316 -0.626042)
(26.3673 -0.0854272 -0.699463)
(26.6636 -0.0682965 -0.798274)
(26.909 -0.0435823 -0.698616)
(27.0837 -0.0341285 -0.604801)
(27.2401 -0.0295379 -0.5726)
(27.5417 -0.0302006 -0.688722)
(39.999 1.20994e-05 0.0297766)
(39.9884 6.26256e-05 0.0878114)
(39.9622 0.000106745 0.145884)
(39.9191 0.000119776 0.204896)
(39.86 0.000122974 0.265447)
(39.7852 0.000139383 0.327921)
(39.6941 0.000157969 0.392493)
(39.5855 0.000162461 0.459294)
(39.4586 0.000155132 0.528443)
(39.3126 0.00015162 0.599975)
(39.1467 0.000160708 0.67388)
(38.9597 0.000198495 0.750223)
(38.7493 0.000234093 0.829238)
(38.514 0.00039959 0.912198)
(38.2488 0.000424923 1.0017)
(37.9613 0.00153876 1.10184)
(37.6336 0.00173712 1.23657)
(37.2338 0.00150545 1.30198)
(36.8769 0.0017322 1.35999)
(36.5465 0.00266291 1.44241)
(36.1961 0.00372458 1.52782)
(35.8201 0.00410251 1.58599)
(35.4089 0.00422121 1.64403)
(34.9441 0.00527364 1.71663)
(34.4478 0.00436041 1.80154)
(33.9146 0.00413833 1.85249)
(33.288 0.00864154 1.89739)
(32.5682 0.0145043 1.99591)
(31.7439 0.0133689 2.09414)
(30.7419 0.0116227 2.18683)
(29.6909 0.0128799 2.34811)
(28.7907 0.0199717 2.43)
(28.0094 0.0359527 2.37533)
(27.3263 0.058484 2.07862)
(27.0451 0.0597822 1.56058)
(26.9495 -0.0133287 1.61947)
(26.6563 -0.0685156 1.76506)
(26.192 -0.0800873 1.69622)
(25.5959 -0.0619964 1.39957)
(25.2167 -0.0152987 0.87147)
(25.0073 -0.0287947 0.665728)
(24.9711 -0.0552563 0.668321)
(24.8838 -0.0693467 0.581057)
(24.8161 -0.0644348 0.367647)
(24.8402 -0.0566506 0.170394)
(24.9408 -0.050851 0.00479576)
(25.0793 -0.0477594 -0.140527)
(25.2608 -0.0401614 -0.254077)
(25.4709 -0.0438777 -0.40246)
(25.7436 -0.0579186 -0.555443)
(26.1631 -0.0578623 -0.634909)
(26.4764 -0.0544601 -0.669736)
(26.7038 -0.049747 -0.720306)
(27.1586 -0.0403799 -0.790919)
(39.999 1.20994e-05 0.0297764)
(39.9884 6.26257e-05 0.087811)
(39.9622 0.000106746 0.145882)
(39.919 0.000119776 0.204892)
(39.8599 0.000122975 0.26544)
(39.7852 0.000139384 0.327912)
(39.694 0.000157971 0.392482)
(39.5854 0.000162462 0.459284)
(39.4585 0.000155134 0.528432)
(39.3125 0.000151628 0.599963)
(39.1467 0.000160695 0.673871)
(38.9597 0.000198579 0.750197)
(38.7495 0.000233683 0.829186)
(38.5139 0.000401469 0.911877)
(38.2508 0.000425734 1.00113)
(37.9596 0.00155919 1.10099)
(37.647 0.00162862 1.23187)
(37.245 0.00146251 1.32943)
(36.882 0.00168884 1.36471)
(36.5542 0.00270103 1.43113)
(36.2056 0.00388928 1.50885)
(35.8302 0.0043931 1.56139)
(35.4055 0.00441241 1.62024)
(34.9318 0.00506152 1.72534)
(34.4456 0.00421097 1.81186)
(33.9064 0.0039987 1.87629)
(33.2591 0.00968998 1.97951)
(32.528 0.0164751 2.11612)
(31.7184 0.0151281 2.2279)
(30.7361 0.0131095 2.31258)
(29.7342 0.0134242 2.41148)
(28.8866 0.0192685 2.48661)
(28.1495 0.0340354 2.49437)
(27.4647 0.0658216 2.29369)
(27.0774 0.0771962 1.78028)
(26.8776 -0.00241356 1.48664)
(26.585 -0.0684379 1.35464)
(26.2015 -0.111505 1.21074)
(25.7845 -0.114015 1.07009)
(25.409 -0.0465768 0.685725)
(25.2113 -0.0255024 0.44943)
(25.1152 -0.0444259 0.37687)
(24.9991 -0.0517124 0.206697)
(24.9046 -0.0473855 -0.0063681)
(24.9121 -0.0398894 -0.196825)
(24.9995 -0.0350833 -0.364253)
(25.138 -0.0314246 -0.508843)
(25.3264 -0.0283231 -0.632995)
(25.5426 -0.0224704 -0.743619)
(25.8394 -0.0327599 -0.858453)
(26.2211 -0.0512526 -0.893298)
(26.5181 -0.0607944 -0.903849)
(26.7446 -0.0660272 -0.960515)
(27.2468 -0.0599635 -1.0357)
(39.999 1.21628e-05 0.0367456)
(39.9886 6.38004e-05 0.109207)
(39.9628 0.00010778 0.182356)
(39.9206 0.000119666 0.256435)
(39.8629 0.000121679 0.331698)
(39.7899 0.000137189 0.408626)
(39.7012 0.000155241 0.487647)
(39.5956 0.000159204 0.569187)
(39.4724 0.000151391 0.653649)
(39.331 0.000145697 0.741409)
(39.1705 0.000155011 0.832842)
(38.9897 0.000177479 0.92844)
(38.7873 0.000226454 1.02895)
(38.5612 0.000261083 1.13589)
(38.3121 0.000480349 1.25139)
(38.0326 0.000501166 1.38002)
(37.747 0.00199101 1.52473)
(37.3792 0.00392376 1.66723)
(36.9534 0.00373943 1.73715)
(36.5512 0.00393882 1.79505)
(36.1683 0.00542598 1.87535)
(35.7723 0.00454218 1.9594)
(35.333 0.00201065 2.09919)
(34.8138 -0.000786702 2.23968)
(34.2428 -0.00703366 2.37384)
(33.5933 -0.010851 2.49751)
(32.7943 -0.00549671 2.63256)
(31.9168 0.00148817 2.85386)
(30.9586 -0.000344153 3.09207)
(29.9109 -0.00223535 3.24961)
(28.9385 0.00211858 3.29357)
(28.1025 0.0139951 3.2125)
(27.365 0.0328688 2.94438)
(26.8081 0.0651664 2.30252)
(26.7543 0.096833 1.45343)
(26.5908 -0.0372067 1.53483)
(26.3781 -0.225164 2.26087)
(25.7529 -0.33784 2.68209)
(25.0836 -0.325551 2.59902)
(24.5841 -0.144189 1.58196)
(24.3112 -0.0910657 0.955948)
(24.3436 -0.106034 0.806848)
(24.2733 -0.1159 0.596085)
(24.2485 -0.106551 0.290707)
(24.3112 -0.0993017 0.0276386)
(24.4395 -0.095621 -0.198778)
(24.6002 -0.0962998 -0.38874)
(24.8247 -0.0947658 -0.597896)
(25.0432 -0.0770986 -0.763284)
(25.2745 -0.0988062 -0.867397)
(25.5438 -0.111416 -1.00174)
(25.8479 -0.133242 -1.04323)
(26.1066 -0.14803 -1.05434)
(26.573 -0.131229 -1.07674)
(39.999 1.21628e-05 0.0367451)
(39.9886 6.38005e-05 0.109205)
(39.9628 0.00010778 0.182351)
(39.9206 0.000119667 0.256429)
(39.8628 0.00012168 0.331691)
(39.7899 0.000137194 0.408618)
(39.7011 0.000155251 0.487638)
(39.5956 0.000159225 0.569178)
(39.4724 0.000151403 0.65364)
(39.3309 0.000145792 0.741398)
(39.1704 0.000154814 0.83283)
(38.9897 0.000178609 0.928417)
(38.7873 0.000229765 1.02892)
(38.5615 0.000264675 1.13576)
(38.3118 0.000494622 1.25124)
(38.0356 0.000476839 1.37935)
(37.7412 0.00212865 1.52482)
(37.4039 0.00352985 1.68104)
(36.9949 0.00344932 1.74196)
(36.5811 0.00399317 1.78952)
(36.1877 0.00602851 1.86789)
(35.7782 0.00591082 1.96019)
(35.2895 0.0020772 2.09616)
(34.7665 -0.00110436 2.23542)
(34.2112 -0.00726141 2.36743)
(33.5189 -0.0114297 2.52015)
(32.7222 -0.00473361 2.71456)
(31.8914 0.00270341 2.95225)
(30.977 0.000513653 3.15486)
(29.9765 -0.00218559 3.2817)
(29.0281 0.00125937 3.30463)
(28.2042 0.0126427 3.24484)
(27.5207 0.0290522 3.05747)
(27.0305 0.0637032 2.57444)
(26.9465 0.131694 1.79785)
(26.898 -0.01673 1.5009)
(26.6591 -0.295882 1.53362)
(26.1707 -0.464568 1.60541)
(25.5741 -0.545487 1.49007)
(25.0455 -0.449663 1.06951)
(24.769 -0.169903 0.638017)
(24.7153 -0.107341 0.383224)
(24.6276 -0.0918196 0.101453)
(24.5878 -0.0786606 -0.199529)
(24.6546 -0.0741073 -0.464227)
(24.8056 -0.0764131 -0.699045)
(25.001 -0.0800427 -0.905523)
(25.2284 -0.0897327 -1.09667)
(25.4307 -0.0964237 -1.20932)
(25.6752 -0.0995269 -1.44495)
(25.8251 -0.0778652 -1.44246)
(26.0513 -0.0923757 -1.39842)
(26.2744 -0.102478 -1.41034)
(26.6636 -0.0668953 -1.47077)
(39.9991 1.15598e-05 0.0437151)
(39.9889 6.06221e-05 0.129961)
(39.9637 0.00010196 0.217189)
(39.9227 0.000113588 0.305762)
(39.8669 0.000116372 0.396077)
(39.7965 0.000132311 0.488796)
(39.7109 0.000150009 0.584475)
(39.6091 0.00015376 0.683617)
(39.4901 0.000146039 0.786677)
(39.3534 0.00014073 0.894085)
(39.1982 0.000149665 1.00627)
(39.0237 0.000172735 1.12374)
(38.8289 0.000212833 1.24723)
(38.6127 0.000248362 1.37784)
(38.3756 0.000354588 1.51737)
(38.117 0.000472851 1.66854)
(37.8437 0.00120464 1.83242)
(37.5571 0.00368378 2.0277)
(37.2165 0.00636792 2.16201)
(36.8104 0.00666232 2.2454)
(36.3633 0.0069669 2.31439)
(35.8484 0.00324362 2.4174)
(35.3262 -0.00268074 2.58824)
(34.8043 -0.00794858 2.80778)
(34.1947 -0.0169431 3.05086)
(33.4481 -0.0195558 3.31371)
(32.4827 -0.00940846 3.54794)
(31.4663 0.00469106 3.81182)
(30.4822 0.00703781 4.07537)
(29.4887 0.00493189 4.20592)
(28.5568 0.00908917 4.15587)
(27.7159 0.0254944 3.95447)
(26.891 0.0578186 3.54522)
(26.1874 0.158821 2.69706)
(25.9589 0.348903 1.78519)
(22.6243 0.0222115 2.95026)
(22.8042 -0.333869 2.79759)
(22.6398 -0.679723 2.52822)
(22.2122 -1.06629 2.54526)
(22.4258 -0.843907 1.27923)
(22.8908 -0.317373 1.0162)
(22.9224 -0.430053 1.26982)
(22.9682 -0.358716 0.910515)
(23.141 -0.298164 0.509444)
(23.3425 -0.281443 0.173149)
(23.5336 -0.285127 -0.115673)
(23.743 -0.287129 -0.371613)
(23.9431 -0.299482 -0.594373)
(24.2012 -0.281901 -0.76829)
(24.4017 -0.261795 -0.915825)
(24.5768 -0.240217 -1.03165)
(24.766 -0.22687 -1.0955)
(24.9148 -0.220435 -1.12381)
(25.148 -0.194802 -1.13537)
(39.9991 1.15584e-05 0.0437142)
(39.9889 6.06291e-05 0.129958)
(39.9637 0.000101931 0.217184)
(39.9227 0.000113714 0.305756)
(39.8668 0.000115834 0.39607)
(39.7965 0.000130665 0.488788)
(39.7109 0.000148109 0.584466)
(39.609 0.000151826 0.683607)
(39.49 0.000144111 0.786667)
(39.3534 0.000138893 0.894077)
(39.1982 0.000147664 1.00626)
(39.0237 0.000171639 1.12373)
(38.8289 0.00021572 1.24722)
(38.6129 0.000252565 1.3778)
(38.3756 0.000366233 1.51733)
(38.1181 0.000456306 1.66805)
(37.8444 0.00131033 1.8333)
(37.5648 0.00323199 2.01543)
(37.2586 0.00616433 2.16834)
(36.8742 0.00695844 2.27442)
(36.4117 0.00814044 2.36648)
(35.9015 0.00463332 2.49294)
(35.339 -0.00285341 2.62537)
(34.7698 -0.00810764 2.80916)
(34.1286 -0.0176507 3.03587)
(33.3373 -0.0195399 3.30352)
(32.4237 -0.00875644 3.56144)
(31.5096 0.00412348 3.8505)
(30.5657 0.00578831 4.08471)
(29.5791 0.00371978 4.20047)
(28.6589 0.00799271 4.15428)
(27.8573 0.0234917 3.99048)
(27.1712 0.0530093 3.66317)
(26.6532 0.193858 3.01987)
(26.6598 0.672752 2.10882)
(27.1159 1.08773 1.09964)
(27.5351 1.01158 0.907999)
(27.1585 0.693562 1.07395)
(26.3753 0.386883 1.11208)
(25.9002 -0.0766828 0.855129)
(24.6386 -0.29987 0.754527)
(24.4959 -0.327577 0.506708)
(24.4845 -0.242358 0.132399)
(24.4588 -0.175874 -0.225258)
(24.4363 -0.147615 -0.530818)
(24.4133 -0.130585 -0.798)
(24.3867 -0.106848 -1.03756)
(24.3514 -0.0795897 -1.24478)
(24.3354 -0.0502556 -1.418)
(24.2901 0.00659441 -1.5707)
(24.3663 0.0767201 -1.6223)
(24.4174 0.136535 -1.64587)
(24.4609 0.181449 -1.65363)
(24.5858 0.279993 -1.683)
(39.9991 1.13328e-05 0.0504489)
(39.9893 6.10622e-05 0.150001)
(39.9652 0.000102378 0.250863)
(39.9259 0.000113112 0.353543)
(39.8726 0.000114883 0.458462)
(39.8052 0.000129666 0.566297)
(39.7233 0.00014646 0.677636)
(39.6256 0.00014996 0.793045)
(39.5113 0.000142435 0.913061)
(39.3797 0.000137615 1.03818)
(39.2303 0.000145258 1.16889)
(39.0621 0.000168443 1.30566)
(38.8744 0.000203443 1.44907)
(38.6669 0.000249277 1.59983)
(38.4396 0.00029707 1.75891)
(38.1945 0.000461946 1.92752)
(37.9327 0.00068537 2.10595)
(37.6636 0.00193731 2.29878)
(37.3811 0.00285328 2.48169)
(37.0642 0.00138201 2.65664)
(36.6877 -7.33966e-05 2.81658)
(36.2294 -0.000822038 3.01986)
(35.6241 -0.00503586 3.18956)
(35.0175 -0.0149083 3.41468)
(34.4006 -0.0268793 3.78783)
(33.6425 -0.032245 4.25099)
(32.6353 -0.0101576 4.6359)
(31.4955 0.016525 4.85214)
(30.4082 0.0183208 5.03661)
(29.3485 0.012092 5.1345)
(28.3731 0.0178912 5.06461)
(27.4925 0.0352585 4.81558)
(26.5259 0.0795472 4.45627)
(25.8376 0.257023 3.88896)
(20.2297 0.239461 0.638126)
(19.946 0.0187885 2.97041)
(20.0316 -0.174841 5.41848)
(19.6867 -0.0745884 5.10691)
(19.3693 -0.145225 4.25611)
(18.9448 -0.421609 3.35054)
(20.1472 -0.456868 1.83167)
(20.2376 -0.384217 1.16093)
(20.3753 -0.259358 0.795092)
(20.655 -0.179689 0.489686)
(20.8897 -0.136074 0.20295)
(21.0297 -0.0969948 -0.0577031)
(21.1188 -0.0543671 -0.299589)
(21.1714 -0.0118151 -0.527849)
(21.2111 0.0212041 -0.726764)
(21.2505 0.0468477 -0.901797)
(21.3064 0.0607026 -1.04985)
(21.4456 0.0562624 -1.18886)
(21.5522 0.0497777 -1.27044)
(21.9681 -0.0158494 -1.43876)
(39.9991 1.13313e-05 0.0504477)
(39.9893 6.10693e-05 0.149996)
(39.9652 0.000102348 0.250853)
(39.9259 0.000113239 0.353532)
(39.8725 0.000114345 0.45845)
(39.8052 0.000127996 0.566284)
(39.7233 0.000144502 0.677622)
(39.6255 0.000147906 0.793031)
(39.5112 0.000140417 0.913047)
(39.3797 0.000135342 1.03817)
(39.2303 0.000144074 1.16887)
(39.0621 0.000168997 1.30564)
(38.8745 0.000204558 1.44905)
(38.6669 0.000251879 1.5998)
(38.4398 0.000304593 1.75889)
(38.1947 0.00047039 1.92721)
(37.9342 0.000702175 2.10565)
(37.6646 0.00194364 2.29361)
(37.3842 0.00283374 2.48225)
(37.0778 0.00141972 2.67)
(36.7035 0.000601462 2.85488)
(36.2915 -0.0010774 3.04507)
(35.6997 -0.00561348 3.25327)
(35.0267 -0.014522 3.46542)
(34.344 -0.0280225 3.75735)
(33.5166 -0.0328313 4.18553)
(32.502 -0.00848349 4.51797)
(31.5196 0.0136138 4.83876)
(30.5174 0.0161519 5.09055)
(29.4763 0.0102398 5.16931)
(28.5043 0.016631 5.04915)
(27.6679 0.0335651 4.81633)
(26.9255 0.0867457 4.48596)
(26.2225 0.402549 4.03189)
(26.5423 1.14891 3.64465)
(20.344 0.0277604 2.94494)
(20.2483 0.123635 2.18698)
(19.9674 0.451745 1.5408)
(19.1755 0.581784 1.01922)
(18.6265 0.449072 0.637943)
(18.6988 0.226672 0.451072)
(18.6759 0.240809 0.129604)
(18.6787 0.362412 -0.271521)
(18.7772 0.461355 -0.620062)
(18.9288 0.5311 -0.895099)
(19.1015 0.601395 -1.11548)
(19.3009 0.682357 -1.28927)
(19.5367 0.761069 -1.42054)
(19.8036 0.834643 -1.51157)
(20.1084 0.904837 -1.58304)
(20.4334 0.964696 -1.61899)
(20.8432 1.00915 -1.61201)
(21.1636 1.04294 -1.57264)
(21.8715 1.05279 -1.50971)
(39.9991 1.03276e-05 0.0568633)
(39.9899 5.58274e-05 0.169106)
(39.9671 9.28571e-05 0.28293)
(39.93 0.000102856 0.398969)
(39.8795 0.000104669 0.5177)
(39.8159 0.000118851 0.639886)
(39.7382 0.00013496 0.766219)
(39.6455 0.000138595 0.897375)
(39.5367 0.000131749 1.03399)
(39.4113 0.00012666 1.1766)
(39.2684 0.000133486 1.32569)
(39.1073 0.000155048 1.48164)
(38.9272 0.000188551 1.64475)
(38.7277 0.000231431 1.81523)
(38.5091 0.000276132 1.99318)
(38.2725 0.00037032 2.17864)
(38.0196 0.000460778 2.37073)
(37.7542 0.000797934 2.56954)
(37.4776 0.000515176 2.7697)
(37.1844 -0.000821207 2.97381)
(36.8609 -0.00270594 3.19359)
(36.5035 -0.00243475 3.46512)
(36.0979 0.00043898 3.76466)
(35.4972 -0.0100238 4.0917)
(34.828 -0.0252148 4.54916)
(34.1719 -0.0358413 5.15873)
(33.3486 -0.0128357 5.67683)
(32.2572 0.0279353 6.00091)
(30.9436 0.0434454 6.17341)
(29.5564 0.0248988 6.15682)
(28.4415 0.0160042 5.89051)
(27.5519 0.0185154 5.55776)
(26.7219 0.0241543 5.37482)
(26.1489 0.129737 5.59128)
(25.4697 0.448273 6.49698)
(17.6669 0.065914 3.02134)
(16.9095 0.0828948 2.15569)
(16.3519 0.108675 1.85364)
(15.5448 0.118213 1.56935)
(15.0568 0.053316 1.08331)
(14.8556 -0.0444506 0.421063)
(14.7292 -0.0806251 0.0504183)
(14.7971 -0.0633865 -0.163528)
(14.9974 -0.0328847 -0.428356)
(15.2769 -0.019049 -0.742441)
(15.6171 -0.0304108 -1.05035)
(16.0424 -0.0586583 -1.33966)
(16.5925 -0.0994715 -1.6208)
(17.2408 -0.157589 -1.89398)
(17.9864 -0.226278 -2.1473)
(18.7836 -0.296177 -2.37058)
(19.7187 -0.360408 -2.57396)
(20.4515 -0.419898 -2.71097)
(21.8981 -0.51161 -2.93905)
(39.9992 1.03276e-05 0.0568619)
(39.9899 5.58275e-05 0.169101)
(39.9671 9.28574e-05 0.28292)
(39.93 0.000102855 0.398957)
(39.8795 0.000104679 0.517688)
(39.8158 0.00011879 0.639873)
(39.7382 0.000135091 0.766205)
(39.6454 0.00013772 0.89736)
(39.5367 0.00012929 1.03397)
(39.4112 0.000123563 1.17659)
(39.2684 0.000131373 1.32568)
(39.1073 0.000154697 1.48162)
(38.9273 0.000188819 1.64473)
(38.7278 0.000232339 1.8152)
(38.5092 0.000277239 1.99315)
(38.2726 0.000374291 2.17847)
(38.02 0.00046695 2.37042)
(37.7542 0.000808566 2.56792)
(37.4755 0.000533683 2.76761)
(37.1809 -0.000821883 2.97305)
(36.8596 -0.0026148 3.19886)
(36.5082 -0.00262005 3.46157)
(36.1191 0.00120939 3.8191)
(35.5757 -0.00807833 4.1347)
(34.8365 -0.0300219 4.53688)
(34.0891 -0.0386885 5.05649)
(33.0892 -0.0197929 5.52975)
(31.9643 0.0171639 5.89551)
(30.9329 0.0351971 6.14011)
(29.8156 0.017929 6.17909)
(28.6386 0.0125105 5.94462)
(27.6553 0.0193777 5.58064)
(26.8651 0.0248368 5.31739)
(26.0477 0.151939 5.34298)
(25.682 0.619834 6.00744)
(24.673 1.33833 6.22918)
(23.8536 1.47941 5.17208)
(22.5142 1.43185 3.73015)
(21.0064 1.35908 2.58459)
(19.9199 1.27392 1.71945)
(19.2761 1.16883 1.0363)
(18.9129 1.11094 0.512486)
(18.8013 1.10567 0.11373)
(18.8614 1.1225 -0.211132)
(19.0315 1.13892 -0.487963)
(19.2875 1.14772 -0.721471)
(19.6267 1.1524 -0.912423)
(20.0397 1.15127 -1.07047)
(20.5093 1.13739 -1.202)
(21.0351 1.1105 -1.31556)
(21.5899 1.07498 -1.40495)
(22.2242 1.03366 -1.47469)
(22.7246 0.98983 -1.51558)
(23.6402 0.897838 -1.56909)
(39.9992 9.94455e-06 0.062879)
(39.9906 5.59463e-05 0.187029)
(39.9694 9.29346e-05 0.313007)
(39.9349 0.00010198 0.441585)
(39.8879 0.000102839 0.573342)
(39.8285 0.000115916 0.709151)
(39.7559 0.000131067 0.849814)
(39.6689 0.00013429 0.996109)
(39.5666 0.000127462 1.14875)
(39.4482 0.000122329 1.30834)
(39.3128 0.000129039 1.47535)
(39.1594 0.000151415 1.65004)
(38.9871 0.000184084 1.83247)
(38.7954 0.000222572 2.0224)
(38.5841 0.00026509 2.21925)
(38.3542 0.000317202 2.42204)
(38.1072 0.000366268 2.6293)
(37.8461 0.000448462 2.83992)
(37.5742 0.000375997 3.05233)
(37.2937 0.000121671 3.27132)
(37.0062 -0.00051626 3.50969)
(36.7104 0.000247966 3.80094)
(36.4142 0.000645428 4.16705)
(36.0704 0.0195953 4.66504)
(35.446 0.015548 5.27362)
(34.8669 -0.00389886 5.89956)
(34.2328 -0.0127784 6.45756)
(33.427 -0.00523895 7.09055)
(32.3339 0.0299883 7.57587)
(30.95 0.0617087 7.67452)
(29.3034 0.0545067 7.08219)
(27.6326 0.0208636 6.3565)
(26.4398 0.00252664 6.02351)
(25.3423 0.0170312 5.98031)
(25.0796 0.241792 7.10365)
(23.5923 0.265128 7.56231)
(21.9567 0.1057 6.31416)
(20.1047 -0.0745607 4.58314)
(18.3558 -0.187473 3.11271)
(17.1601 -0.263777 1.90837)
(16.5174 -0.357695 0.88174)
(16.2494 -0.452 0.0780024)
(16.3056 -0.517709 -0.570219)
(16.6718 -0.559534 -1.14425)
(17.2835 -0.604966 -1.66437)
(18.0481 -0.661357 -2.11856)
(18.9014 -0.709383 -2.50025)
(19.8094 -0.739874 -2.81944)
(20.7407 -0.757298 -3.0858)
(21.6737 -0.766318 -3.30389)
(22.5641 -0.766817 -3.47203)
(23.4655 -0.762046 -3.59279)
(24.1437 -0.759411 -3.6701)
(25.2493 -0.76022 -3.72162)
(39.9992 9.94458e-06 0.0628773)
(39.9906 5.59461e-05 0.187023)
(39.9694 9.29355e-05 0.312994)
(39.9349 0.000101977 0.441571)
(39.8879 0.00010285 0.573326)
(39.8285 0.000115878 0.709134)
(39.7558 0.000131264 0.849795)
(39.6689 0.000133532 0.99609)
(39.5666 0.000125072 1.14873)
(39.4481 0.000119398 1.30833)
(39.3127 0.000126432 1.47533)
(39.1594 0.000146877 1.65002)
(38.9872 0.000179965 1.83244)
(38.7954 0.000221117 2.02237)
(38.5842 0.000260769 2.2192)
(38.3542 0.000311545 2.42195)
(38.1073 0.00036526 2.62914)
(37.8461 0.000449517 2.83949)
(37.5738 0.000387423 3.0523)
(37.2926 0.000120077 3.272)
(37.0054 -0.000458101 3.51294)
(36.7122 -3.7132e-05 3.79805)
(36.4192 0.00179641 4.17843)
(36.122 0.013972 4.63871)
(35.6735 0.0137681 5.23555)
(34.9842 -0.00555093 5.84419)
(34.2468 -0.0208193 6.54073)
(33.0943 -0.0110697 7.05485)
(31.8755 0.0241916 7.3308)
(30.693 0.0525537 7.4203)
(29.3949 0.0554813 7.22347)
(27.9551 0.0239119 6.62894)
(26.5569 -0.00209306 6.11358)
(25.1351 -0.0169594 6.15469)
(24.1924 0.146407 6.64234)
(24.0889 0.479961 6.94598)
(24.0438 0.668042 6.35494)
(23.5604 0.749917 5.26683)
(22.8076 0.800275 4.19215)
(22.1509 0.823902 3.20912)
(21.7165 0.808433 2.31709)
(21.4861 0.779244 1.56293)
(21.4391 0.75962 0.929559)
(21.5535 0.7478 0.383979)
(21.7898 0.723328 -0.0957566)
(22.1187 0.677278 -0.512997)
(22.5161 0.618814 -0.870228)
(22.9582 0.55582 -1.17812)
(23.4225 0.48712 -1.44663)
(23.9027 0.411474 -1.68453)
(24.3688 0.334449 -1.87997)
(24.8546 0.253325 -2.05316)
(25.1987 0.183902 -2.14521)
(25.7767 0.0513273 -2.30081)
(39.9993 8.69414e-06 0.0684197)
(39.9914 4.92518e-05 0.203547)
(39.9721 8.06937e-05 0.34074)
(39.9406 8.82562e-05 0.480926)
(39.8976 8.91581e-05 0.624795)
(39.8431 0.000101947 0.77335)
(39.7763 0.000116646 0.927515)
(39.6961 0.0001191 1.08819)
(39.6012 0.000111318 1.25621)
(39.4907 0.000105872 1.43227)
(39.3637 0.000111173 1.61686)
(39.2189 0.00013074 1.8102)
(39.0549 0.000160036 2.01217)
(38.8709 0.000194754 2.22214)
(38.6662 0.000231846 2.43887)
(38.4412 0.000271639 2.66041)
(38.1975 0.00031317 2.88408)
(37.9387 0.000357056 3.10705)
(37.6711 0.00042 3.32737)