/*--------------------------------*- C++ -*----------------------------------*\
| =========                 |                                                 |
| \\      /  F ield         | OpenFOAM: The Open Source CFD Toolbox           |
|  \\    /   O peration     | Version:  4.1                                   |
|   \\  /    A nd           | Web:      www.OpenFOAM.org                      |
|    \\/     M anipulation  |                                                 |
\*---------------------------------------------------------------------------*/
FoamFile
{
    version     2.0;
    format      ascii;
    class       surfaceScalarField;
    location    "5";
    object      phi;
}
// * * * * * * * * * * * * * * * * * * * * * * * * * * * * * * * * * * * * * //

dimensions      [0 3 -1 0 0 0 0];

internalField   nonuniform List<scalar> 
11516
(
-1.254e+08
50760.5
1.25642e+08
-1.46862e+08
531184
3.03504e+07
-6.48019e+07
-2.22804e+06
-6.9274e+07
4.20581e+07
-5.19369e+06
-9.2687e+07
1.33646e+08
-6.25616e+06
-7.77893e+07
2.05938e+08
-6.39791e+06
-5.86388e+07
2.62376e+08
-6.22285e+06
-4.24701e+07
3.06782e+08
-5.78181e+06
-2.96696e+07
3.38555e+08
-3.81965e+06
-1.6974e+07
3.56352e+08
-957163
-3.09333e+06
3.60732e+08
-174357
1.38051e+07
3.59723e+08
-694820
2.60665e+07
3.69141e+08
-233329
2.06393e+07
3.84782e+08
2.65398e+06
1.85931e+07
4.00637e+08
4.33733e+06
2.52809e+07
4.22326e+08
6.40434e+06
3.22409e+07
4.62549e+08
1.00185e+07
3.20843e+07
5.09263e+08
1.42307e+07
4.37093e+07
5.27142e+08
1.22947e+07
7.20324e+07
5.13695e+08
8.37859e+06
9.22437e+07
4.86646e+08
6.2093e+06
8.85297e+07
4.62615e+08
7.48055e+06
7.00335e+07
4.53986e+08
1.04524e+07
4.15103e+07
4.74846e+08
1.22934e+07
4.1582e+06
5.29361e+08
1.10655e+07
-3.14475e+07
6.04714e+08
6.81711e+06
-4.9754e+07
6.91543e+08
1.16e+06
-5.81492e+07
7.94892e+08
-959788
-7.53273e+07
9.04744e+08
-561936
-8.47626e+07
9.97356e+08
-1.95034e+06
-6.8013e+07
1.06337e+09
-4.33906e+06
-4.10905e+07
1.10686e+09
-4.62616e+06
-2.02356e+07
1.1307e+09
-1.82912e+06
-5.5204e+06
1.13782e+09
114231
7.8091e+06
1.12968e+09
-2.81282e+06
2.47725e+07
1.10606e+09
-3.26845e+06
3.99715e+07
1.06606e+09
2.16318e+06
5.00811e+07
1.01029e+09
8.67966e+06
5.87213e+07
9.46915e+08
6.89997e+06
6.75651e+07
8.77281e+08
3.88155e+06
7.67377e+07
7.86055e+08
1.10541e+07
9.14417e+07
6.73691e+08
1.27402e+07
1.11748e+08
5.4577e+08
4.12365e+06
1.36384e+08
3.96329e+08
657944
1.60812e+08
2.14481e+08
4.85076e+06
1.85039e+08
-1.34329e+07
7.43091e+06
2.18205e+08
-3.07267e+08
5.76733e+06
2.66287e+08
-6.93006e+08
4.06116e+06
3.29187e+08
-1.18947e+09
2.89378e+06
4.01304e+08
-1.80642e+09
1.25192e+06
4.84114e+08
-2.56708e+09
8.76617e+06
5.97653e+08
-3.52129e+09
3.63968e+07
7.41085e+08
-4.5397e+09
7.57665e+07
7.91695e+08
4.54901e+07
4.44128e+08
-1.18279e+08
1.28314e+08
-1.42212e+08
3.14368e+07
-5.80647e+07
-7.94974e+07
4.91034e+07
-1.06542e+08
1.40156e+08
-9.22425e+07
2.11574e+08
-7.27817e+07
2.66365e+08
-5.54967e+07
3.09164e+08
-4.21575e+07
3.43679e+08
-3.05e+07
3.66353e+08
-1.35976e+07
3.74109e+08
5.15027e+06
3.71317e+08
1.96155e+07
3.79866e+08
1.26592e+07
3.97944e+08
1.14208e+07
4.16178e+08
2.04201e+07
4.40845e+08
2.83582e+07
4.87565e+08
2.83537e+07
5.37047e+08
4.14421e+07
5.48936e+08
7.2182e+07
5.22824e+08
9.19835e+07
4.85912e+08
8.72643e+07
4.59264e+08
6.81501e+07
4.54315e+08
4.30624e+07
4.81719e+08
8.70403e+06
5.42856e+08
-2.80775e+07
6.19131e+08
-4.87612e+07
7.0008e+08
-6.09079e+07
8.01009e+08
-8.51894e+07
9.16422e+08
-1.00932e+08
1.01453e+09
-8.64009e+07
1.08198e+09
-5.94422e+07
1.12705e+09
-3.89323e+07
1.1599e+09
-2.52163e+07
1.18225e+09
-1.37455e+07
1.18439e+09
3.02825e+06
1.16836e+09
2.02138e+07
1.14843e+09
2.91198e+07
1.12584e+09
3.78345e+07
1.08715e+09
5.19956e+07
1.03164e+09
6.57989e+07
9.70459e+08
7.8831e+07
8.89124e+08
1.00956e+08
7.68982e+08
1.31497e+08
6.19771e+08
1.56212e+08
4.51529e+08
1.75831e+08
2.48598e+08
2.05345e+08
-1.50255e+07
2.50835e+08
-3.57865e+08
3.08425e+08
-7.90897e+08
3.73041e+08
-1.32272e+09
4.50737e+08
-1.96315e+09
5.53836e+08
-2.69861e+09
6.69106e+08
-3.365e+09
6.76743e+08
3.6255e+08
-9.40285e+07
3.00956e+06
2.02798e+08
-5.04474e+07
2.66673e+06
-5.50515e+06
3.88812e+07
367396
-1.50751e+08
1.10845e+08
-1.38621e+06
-1.55128e+08
1.67571e+08
-2.23294e+06
-1.23869e+08
2.15721e+08
-2.43505e+06
-9.53677e+07
2.57988e+08
-2.26255e+06
-7.24793e+07
2.9517e+08
-1.6157e+06
-5.36388e+07
3.2866e+08
-312811
-3.60848e+07
3.58018e+08
1.22052e+06
-1.71887e+07
3.77272e+08
1.60904e+06
1.25992e+07
3.89444e+08
2.13957e+06
3.84897e+07
4.03134e+08
3.71476e+06
3.83777e+07
4.18098e+08
5.89211e+06
4.15905e+07
4.344e+08
7.77729e+06
5.70295e+07
4.55475e+08
9.2617e+06
7.24523e+07
4.77776e+08
1.19431e+07
8.68171e+07
4.78726e+08
1.08931e+07
1.16378e+08
4.73894e+08
7.28412e+06
1.38999e+08
4.77753e+08
4.3222e+06
1.37973e+08
4.89031e+08
4.67542e+06
1.1524e+08
4.98421e+08
9.71007e+06
8.48985e+07
5.11209e+08
1.63279e+07
4.02632e+07
5.45745e+08
1.73601e+07
-2.38168e+07
6.11754e+08
1.25329e+07
-8.79965e+07
7.07028e+08
6.4585e+06
-1.30908e+08
8.10031e+08
1.02801e+06
-1.42873e+08
8.95669e+08
-2.6174e+06
-1.40362e+08
9.56949e+08
-3.71535e+06
-1.24922e+08
9.96896e+08
-3.87318e+06
-8.74317e+07
1.01832e+09
-3.96622e+06
-4.28314e+07
1.02161e+09
-4.02225e+06
-5.40422e+06
1.00852e+09
-3.93267e+06
2.42629e+07
9.87031e+08
-4.75868e+06
4.55959e+07
9.66877e+08
-5.30148e+06
6.10503e+07
9.50673e+08
-4.19863e+06
7.04735e+07
9.38471e+08
-1.96847e+06
7.40126e+07
9.29599e+08
1.34889e+06
7.56698e+07
9.23986e+08
3.01106e+06
7.96209e+07
9.18563e+08
3.83918e+06
8.79049e+07
9.05227e+08
7.20318e+06
1.07607e+08
8.74871e+08
9.46338e+06
1.43223e+08
8.20965e+08
8.30738e+06
1.93182e+08
7.3606e+08
7.66417e+06
2.48185e+08
6.10554e+08
8.66491e+06
3.07658e+08
4.37787e+08
9.55931e+06
3.77822e+08
2.13008e+08
8.75186e+06
4.61565e+08
-7.11165e+07
6.9953e+06
5.60018e+08
-4.26239e+08
5.47632e+06
6.74182e+08
-8.5619e+08
6.36183e+06
8.0506e+08
-1.33401e+09
1.0879e+07
9.44679e+08
-1.80057e+09
2.01326e+07
1.08062e+09
-2.20362e+09
3.11423e+07
1.09016e+09
1.58367e+07
6.05227e+08
-8.43768e+07
2.00419e+08
-3.90968e+07
-4.76565e+06
5.01098e+07
-1.63062e+08
1.20221e+08
-1.72695e+08
1.74877e+08
-1.43452e+08
2.21176e+08
-1.15301e+08
2.61844e+08
-9.14342e+07
2.97544e+08
-7.13011e+07
3.29418e+08
-5.25942e+07
3.58042e+08
-2.89558e+07
3.76796e+08
2.48502e+06
3.88424e+08
2.97476e+07
4.02032e+08
2.81069e+07
4.18988e+08
3.23375e+07
4.37657e+08
4.96636e+07
4.61983e+08
6.57278e+07
4.82478e+08
8.12631e+07
4.7928e+08
1.11802e+08
4.7041e+08
1.32921e+08
4.69612e+08
1.31881e+08
4.78583e+08
1.09968e+08
4.95847e+08
8.21175e+07
5.25481e+08
4.74598e+07
5.758e+08
-8.78014e+06
6.49541e+08
-7.50231e+07
7.4504e+08
-1.24366e+08
8.43185e+08
-1.4565e+08
9.21528e+08
-1.54575e+08
9.76631e+08
-1.48743e+08
1.0138e+09
-1.16988e+08
1.03465e+09
-7.47415e+07
1.03841e+09
-3.82243e+07
1.02601e+09
-9.25629e+06
1.00095e+09
1.34466e+07
9.73658e+08
3.14476e+07
9.51035e+08
4.46928e+07
9.35035e+08
4.88846e+07
9.30231e+08
4.95771e+07
9.34308e+08
5.64994e+07
9.40348e+08
6.90865e+07
9.44289e+08
8.75533e+07
9.36803e+08
1.23715e+08
9.02809e+08
1.79509e+08
8.32709e+08
2.38454e+08
7.21496e+08
2.96516e+08
5.64979e+08
3.64648e+08
3.58596e+08
4.46343e+08
9.33631e+07
5.42837e+08
-2.40094e+08
6.54219e+08
-6.38892e+08
7.80441e+08
-1.07012e+09
9.13524e+08
-1.47907e+09
1.0354e+09
-1.83113e+09
1.02405e+09
5.54035e+08
-6.63027e+07
2.42138e+06
2.70186e+08
1.56937e+07
2.97742e+06
-8.1369e+07
7.99442e+07
829779
-2.07888e+08
1.29105e+08
-637550
-1.94891e+08
1.6902e+08
-1.40878e+06
-1.52549e+08
2.03537e+08
-1.72827e+06
-1.17161e+08
2.35099e+08
-1.71898e+06
-8.99296e+07
2.6461e+08
-1.32357e+06
-6.7463e+07
2.91311e+08
-486278
-4.51918e+07
3.13444e+08
512575
-2.0741e+07
3.30761e+08
1.23316e+06
1.44609e+07
3.44045e+08
2.13669e+06
4.94593e+07
3.56507e+08
3.66118e+06
5.54335e+07
3.69686e+08
4.50399e+06
6.15833e+07
3.82953e+08
5.44594e+06
8.35211e+07
4.00377e+08
6.84415e+06
1.04743e+08
4.18527e+08
8.60218e+06
1.26052e+08
4.35224e+08
6.53046e+06
1.50121e+08
4.59663e+08
4.64907e+06
1.58077e+08
4.88775e+08
3.30546e+06
1.43905e+08
5.18234e+08
6.41757e+06
1.10782e+08
5.33659e+08
1.59088e+07
7.84897e+07
5.52585e+08
2.43864e+07
1.71416e+07
6.0239e+08
2.04543e+07
-7.70568e+07
6.85725e+08
9.23364e+06
-1.65135e+08
7.87993e+08
61538.4
-2.18806e+08
8.83372e+08
-5.52211e+06
-2.19207e+08
9.50843e+08
-8.41027e+06
-1.8684e+08
9.86815e+08
-9.46516e+06
-1.39037e+08
9.97777e+08
-1.00484e+07
-7.59822e+07
9.8845e+08
-1.04211e+07
-1.08103e+07
9.61162e+08
-1.05472e+07
4.38103e+07
9.19636e+08
-9.66319e+06
8.56037e+07
8.6369e+08
-7.98101e+06
1.18168e+08
7.94738e+08
-6.05196e+06
1.43562e+08
7.17937e+08
-4.42937e+06
1.58251e+08
6.39876e+08
-2.79289e+06
1.60779e+08
5.67533e+08
-867702
1.5435e+08
5.0758e+08
724158
1.44103e+08
4.62413e+08
1.9127e+06
1.36082e+08
4.29749e+08
4.4554e+06
1.40897e+08
3.95667e+08
7.4922e+06
1.76127e+08
3.41568e+08
1.00059e+07
2.44406e+08
2.52537e+08
1.35557e+07
3.29544e+08
1.06425e+08
1.64694e+07
4.37642e+08
-1.14387e+08
2.07144e+07
5.64166e+08
-4.23254e+08
2.16111e+07
7.09438e+08
-8.3814e+08
1.92117e+07
8.80849e+08
-1.37415e+09
1.6031e+07
1.08041e+09
-2.04214e+09
1.77647e+07
1.3088e+09
-2.85973e+09
3.37318e+07
1.58399e+09
-3.93735e+09
7.10757e+07
1.96587e+09
-5.59165e+09
1.20632e+08
2.56525e+09
8.10228e+07
1.39657e+09
-5.7673e+07
2.6447e+08
2.81631e+07
-8.1324e+07
9.31194e+07
-2.21752e+08
1.4113e+08
-2.15342e+08
1.79119e+08
-1.76082e+08
2.11653e+08
-1.41958e+08
2.41605e+08
-1.1448e+08
2.69764e+08
-9.07038e+07
2.95122e+08
-6.64775e+07
3.16393e+08
-3.61255e+07
3.3268e+08
2.16881e+06
3.45497e+08
3.82478e+07
3.57762e+08
4.32425e+07
3.71565e+08
4.99023e+07
3.85794e+08
7.31011e+07
4.03463e+08
9.51897e+07
4.19323e+08
1.1719e+08
4.34162e+08
1.40913e+08
4.542e+08
1.48041e+08
4.78094e+08
1.35973e+08
5.09102e+08
1.04601e+08
5.45306e+08
7.71986e+07
5.93651e+08
3.57441e+07
6.62786e+08
-4.70392e+07
7.48922e+08
-1.42525e+08
8.43184e+08
-2.09839e+08
9.28004e+08
-2.28013e+08
9.86777e+08
-2.14437e+08
1.01657e+09
-1.8119e+08
1.02371e+09
-1.27637e+08
1.01212e+09
-6.75355e+07
9.82064e+08
-1.33496e+07
9.35133e+08
3.25006e+07
8.7419e+08
6.99761e+07
8.02659e+08
9.95086e+07
7.25436e+08
1.19258e+08
6.46581e+08
1.26114e+08
5.72523e+08
1.23564e+08
5.11647e+08
1.1798e+08
4.66429e+08
1.15126e+08
4.3357e+08
1.23623e+08
4.03735e+08
1.59978e+08
3.59908e+08
2.32212e+08
2.80803e+08
3.28248e+08
1.48809e+08
4.37163e+08
-5.70228e+07
5.72639e+08
-3.47402e+08
7.22491e+08
-7.426e+08
8.98418e+08
-1.25352e+09
1.09915e+09
-1.87234e+09
1.32337e+09
-2.5904e+09
1.58191e+09
-3.47745e+09
1.92863e+09
-4.80132e+09
2.45064e+09
1.33032e+09
-9.68131e+06
1.49208e+07
2.97506e+08
6.47273e+07
3.47162e+06
-1.49999e+08
1.07747e+08
847427
-2.43308e+08
1.38164e+08
-440679
-2.15299e+08
1.64135e+08
-1.1486e+06
-1.66365e+08
1.88123e+08
-1.60437e+06
-1.27045e+08
2.11073e+08
-1.84365e+06
-9.68624e+07
2.33741e+08
-1.77389e+06
-7.20937e+07
2.57659e+08
-1.33178e+06
-4.87986e+07
2.81198e+08
-614990
-2.27388e+07
3.03373e+08
348296
1.20078e+07
3.19751e+08
1.38398e+06
5.60409e+07
3.33086e+08
2.81176e+06
6.88389e+07
3.48735e+08
3.68706e+06
7.51111e+07
3.67452e+08
4.04374e+06
9.7633e+07
3.91159e+08
5.18021e+06
1.21196e+08
4.16656e+08
5.58651e+06
1.43002e+08
4.46032e+08
4.50621e+06
1.597e+08
4.8048e+08
3.05667e+06
1.57048e+08
5.18912e+08
3.11573e+06
1.33338e+08
5.52374e+08
9.51955e+06
9.2563e+07
5.65055e+08
2.451e+07
6.11327e+07
5.92271e+08
3.2004e+07
-2.73257e+07
6.61796e+08
1.929e+07
-1.5406e+08
7.58749e+08
1.7304e+06
-2.53549e+08
8.55784e+08
-8.98079e+06
-2.97358e+08
9.2729e+08
-1.43461e+07
-2.67966e+08
9.62922e+08
-1.67133e+07
-1.98224e+08
9.65435e+08
-1.78519e+07
-1.16797e+08
9.44133e+08
-1.89547e+07
-2.85274e+07
9.12786e+08
-2.04829e+07
4.79854e+07
8.76064e+08
-1.99457e+07
1.06521e+08
8.25751e+08
-1.49428e+07
1.55023e+08
7.53861e+08
-9.36366e+06
2.01475e+08
6.59959e+08
-6.38061e+06
2.43378e+08
5.49142e+08
-4.30218e+06
2.7079e+08
4.27056e+08
-1.83462e+06
2.80409e+08
3.01584e+08
498280
2.73406e+08
1.81802e+08
2.18961e+06
2.53502e+08
7.59941e+07
3.21638e+06
2.2832e+08
-2.24898e+06
5.15188e+06
2.02598e+08
-7.22099e+07
4.68304e+06
2.30619e+08
-1.64161e+08
8.40557e+06
3.19393e+08
-3.32825e+08
3.03938e+07
4.60952e+08
-6.39561e+08
4.46747e+07
6.9101e+08
-1.02992e+09
2.85621e+07
9.06132e+08
-1.42472e+09
1.00998e+07
1.0544e+09
-1.7942e+09
6.44419e+06
1.18048e+09
-2.10714e+09
7.18987e+06
1.30907e+09
-2.33601e+09
1.12782e+07
1.45367e+09
-2.47002e+09
1.88537e+07
1.63408e+09
-2.46468e+09
3.64152e+07
1.89252e+09
-2.20083e+09
6.47691e+07
2.22103e+09
1.53719e+07
3.01047e+08
-3.08097e+06
2.91157e+08
7.86304e+07
-1.53775e+08
1.23858e+08
-2.60563e+08
1.5376e+08
-2.39301e+08
1.77923e+08
-1.93992e+08
1.99669e+08
-1.56833e+08
2.20549e+08
-1.27538e+08
2.41498e+08
-1.0229e+08
2.6387e+08
-7.70713e+07
2.86414e+08
-4.47609e+07
3.07348e+08
-4.03093e+06
3.22617e+08
4.19308e+07
3.35539e+08
5.43724e+07
3.51247e+08
6.1204e+07
3.70886e+08
8.44321e+07
3.93954e+08
1.08833e+08
4.17857e+08
1.31079e+08
4.44216e+08
1.47175e+08
4.74012e+08
1.45331e+08
5.07773e+08
1.24846e+08
5.50978e+08
8.63386e+07
6.01122e+08
6.36626e+07
6.67358e+08
1.06305e+07
7.5269e+08
-1.05683e+08
8.42725e+08
-2.24277e+08
9.2234e+08
-2.92487e+08
9.76943e+08
-2.91726e+08
1.00159e+09
-2.51337e+08
9.99828e+08
-1.93159e+08
9.78004e+08
-1.2086e+08
9.4091e+08
-4.74051e+07
8.90826e+08
1.94928e+07
8.30375e+08
7.94278e+07
7.56569e+08
1.3427e+08
6.63825e+08
1.84187e+08
5.54561e+08
2.21117e+08
4.34742e+08
2.39745e+08
3.11088e+08
2.41419e+08
1.93246e+08
2.29948e+08
8.9908e+07
2.12944e+08
9.0887e+06
2.00227e+08
-5.83945e+07
2.22601e+08
-1.39745e+08
3.13797e+08
-2.50361e+08
4.63229e+08
-4.81472e+08
7.06052e+08
-8.90161e+08
9.93829e+08
-1.34643e+09
1.15818e+09
-1.75526e+09
1.26977e+09
-2.07671e+09
1.38044e+09
-2.29831e+09
1.51123e+09
-2.42131e+09
1.6909e+09
-2.41573e+09
1.95943e+09
-2.18916e+09
2.28845e+09
3.127e+08
7.21688e+07
9.97416e+06
2.58863e+08
1.08131e+08
2.10469e+06
-1.7974e+08
1.27208e+08
487060
-2.54953e+08
1.41506e+08
-386983
-2.19834e+08
1.56867e+08
-1.06524e+06
-1.69478e+08
1.73423e+08
-1.70844e+06
-1.28888e+08
1.90437e+08
-2.25297e+06
-9.67243e+07
2.08056e+08
-2.54482e+06
-7.00521e+07
2.28683e+08
-2.51961e+06
-4.68448e+07
2.53943e+08
-2.29076e+06
-2.29053e+07
2.80701e+08
-1.10415e+06
6.63953e+06
3.01971e+08
-76525.3
5.7398e+07
3.18401e+08
1.36679e+06
7.81922e+07
3.35902e+08
2.36856e+06
8.51359e+07
3.58897e+08
3.07606e+06
1.05182e+08
3.88948e+08
4.03696e+06
1.26981e+08
4.23084e+08
3.93963e+06
1.44956e+08
4.61312e+08
3.16678e+06
1.55391e+08
5.03319e+08
2.30371e+06
1.4509e+08
5.47023e+08
4.06333e+06
1.14512e+08
5.78938e+08
1.52116e+07
6.91531e+07
5.85715e+08
3.63673e+07
3.75225e+07
6.23711e+08
3.87428e+07
-9.01164e+07
7.10248e+08
1.44082e+07
-2.43776e+08
8.10599e+08
-8.03988e+06
-3.359e+08
8.90661e+08
-1.85895e+07
-3.49608e+08
9.30313e+08
-2.26986e+07
-2.76632e+08
9.27306e+08
-2.39509e+07
-1.63535e+08
8.88823e+08
-2.58481e+07
-4.41892e+07
8.45383e+08
-2.94643e+07
5.29901e+07
8.12333e+08
-3.1812e+07
1.20583e+08
7.7359e+08
-2.48716e+07
1.76518e+08
7.13987e+08
-1.18386e+07
2.30925e+08
6.30303e+08
-3.82828e+06
2.90861e+08
5.23339e+08
-2.10785e+06
3.51694e+08
3.92735e+08
-537401
3.98667e+08
2.40801e+08
2.63403e+06
4.2368e+08
7.46555e+07
5.59069e+06
4.25228e+08
-9.70113e+07
7.70269e+06
4.07152e+08
-2.73087e+08
7.99961e+06
3.86247e+08
-4.96693e+08
1.34538e+07
4.02693e+08
-8.02544e+08
1.74216e+07
5.10848e+08
-1.16458e+09
1.51919e+07
6.64456e+08
-1.51491e+09
1.54859e+07
8.02348e+08
-1.73962e+09
7.02698e+06
9.21108e+08
-1.8225e+09
-1.02819e+07
1.01024e+09
-1.82614e+09
-1.41053e+07
1.07727e+09
-1.7772e+09
-1.31825e+07
1.14459e+09
-1.68794e+09
-1.07466e+07
1.22687e+09
-1.56057e+09
-8.91911e+06
1.33089e+09
-1.38203e+09
-7.27501e+06
1.47424e+09
-1.15048e+09
-7.90403e+06
1.68957e+09
-8.46236e+08
-1.71739e+07
1.96884e+09
-5.09507e+06
1.49429e+08
8.40515e+07
2.68675e+08
1.25963e+08
-1.88016e+08
1.47285e+08
-2.76096e+08
1.61532e+08
-2.4756e+08
1.75286e+08
-2.01165e+08
1.89326e+08
-1.63668e+08
2.03622e+08
-1.33848e+08
2.18912e+08
-1.08305e+08
2.37577e+08
-8.42924e+07
2.61612e+08
-5.54745e+07
2.86927e+08
-1.60793e+07
3.06636e+08
3.84545e+07
3.2217e+08
5.96178e+07
3.39704e+08
6.74033e+07
3.62909e+08
8.86815e+07
3.92394e+08
1.11101e+08
4.24673e+08
1.2984e+08
4.59384e+08
1.39943e+08
4.96653e+08
1.3195e+08
5.38365e+08
1.05263e+08
5.92098e+08
6.27783e+07
6.55765e+08
4.80989e+07
7.37434e+08
-2.36097e+07
8.29871e+08
-1.76634e+08
9.10484e+08
-3.06572e+08
9.6351e+08
-3.58307e+08
9.81855e+08
-3.27683e+08
9.69733e+08
-2.58826e+08
9.32711e+08
-1.78031e+08
8.77304e+08
-9.13195e+07
8.12273e+08
-1.11776e+07
7.47712e+08
6.11756e+07
6.8511e+08
1.30915e+08
6.10023e+08
2.0468e+08
5.1045e+08
2.78887e+08
3.85958e+08
3.40196e+08
2.41156e+08
3.79688e+08
8.25829e+07
3.9603e+08
-8.13268e+07
3.91389e+08
-2.42532e+08
3.71501e+08
-4.38003e+08
3.98286e+08
-7.25617e+08
5.18411e+08
-1.09701e+09
6.96423e+08
-1.47176e+09
8.55633e+08
-1.74083e+09
9.87484e+08
-1.83564e+09
1.08361e+09
-1.83205e+09
1.14313e+09
-1.77515e+09
1.20003e+09
-1.68108e+09
1.27538e+09
-1.55035e+09
1.37789e+09
-1.37281e+09
1.52527e+09
-1.15316e+09
1.75179e+09
-8.83303e+08
2.03855e+09
1.57283e+08
1.09535e+08
-459414
1.81674e+08
1.28401e+08
1.04029e+06
-1.9169e+08
1.33629e+08
416906
-2.52912e+08
1.38311e+08
-113500
-2.1498e+08
1.47519e+08
-822164
-1.66369e+08
1.59945e+08
-1.70017e+06
-1.26078e+08
1.73749e+08
-2.57953e+06
-9.23389e+07
1.88305e+08
-3.2232e+06
-6.34662e+07
2.05449e+08
-3.49098e+06
-3.9507e+07
2.30898e+08
-3.68204e+06
-2.09192e+07
2.60695e+08
-2.85791e+06
984648
2.88153e+08
-1.79549e+06
5.31444e+07
3.08514e+08
-456514
8.32383e+07
3.29203e+08
758929
9.10961e+07
3.56112e+08
1.86896e+06
1.08236e+08
3.8977e+08
2.81186e+06
1.2695e+08
4.28676e+08
3.06061e+06
1.40515e+08
4.70815e+08
2.37778e+06
1.45199e+08
5.16802e+08
2.56748e+06
1.29034e+08
5.62631e+08
6.58821e+06
9.11591e+07
5.90107e+08
2.45898e+07
4.30727e+07
5.91642e+08
5.14601e+07
5.82897e+06
6.42489e+08
4.27819e+07
-1.68845e+08
7.4148e+08
4.78789e+06
-3.35756e+08
8.34742e+08
-2.00903e+07
-3.98599e+08
8.89154e+08
-2.82151e+07
-3.66035e+08
8.90032e+08
-2.89017e+07
-2.39118e+08
8.3675e+08
-2.85e+07
-7.23572e+07
7.7423e+08
-3.40711e+07
6.17388e+07
7.42405e+08
-4.16759e+07
1.34679e+08
7.12322e+08
-3.99165e+07
1.97249e+08
6.58407e+08
-2.35168e+07
2.59082e+08
5.79318e+08
-1.92149e+06
3.15253e+08
4.82535e+08
9.30453e+06
3.79686e+08
3.69899e+08
8.23024e+06
4.54336e+08
2.32163e+08
6.98336e+06
5.23852e+08
6.30641e+07
1.0381e+07
5.73297e+08
-1.34705e+08
1.44565e+07
5.968e+08
-3.60515e+08
1.72886e+07
6.03611e+08
-6.30755e+08
2.04723e+07
6.25733e+08
-9.61106e+08
2.34255e+07
7.01317e+08
-1.27061e+09
1.60729e+07
7.97604e+08
-1.48493e+09
7.50904e+06
8.67935e+08
-1.59757e+09
4.4644e+06
9.13131e+08
-1.61456e+09
-954464
9.46142e+08
-1.56245e+09
-4.82591e+06
9.72655e+08
-1.46725e+09
-5.36384e+06
9.98734e+08
-1.34093e+09
-4.9559e+06
1.03455e+09
-1.18826e+09
-2.74632e+06
1.09275e+09
-1.00504e+09
-404984
1.1726e+09
-7.84537e+08
-871526
1.28616e+09
-5.55523e+08
-6.38144e+06
1.52198e+09
-4.44667e+08
-2.44656e+07
1.93517e+09
-6.7667e+06
1.42591e+08
1.27029e+08
1.7766e+08
1.50333e+08
-2.04924e+08
1.58232e+08
-2.7814e+08
1.63542e+08
-2.46433e+08
1.71474e+08
-2.02034e+08
1.81106e+08
-1.6577e+08
1.91316e+08
-1.36016e+08
2.02487e+08
-1.10462e+08
2.17094e+08
-8.80249e+07
2.40729e+08
-6.70221e+07
2.69252e+08
-3.25714e+07
2.94622e+08
2.65901e+07
3.13519e+08
5.80072e+07
3.34218e+08
6.73355e+07
3.6098e+08
8.63929e+07
3.94455e+08
1.06319e+08
4.30758e+08
1.2124e+08
4.69513e+08
1.26608e+08
5.11202e+08
1.1354e+08
5.60485e+08
8.08018e+07
6.27073e+08
3.61137e+07
7.06201e+08
3.27632e+07
7.98736e+08
-6.4451e+07
8.87277e+08
-2.53205e+08
9.45897e+08
-3.78922e+08
9.64656e+08
-3.99549e+08
9.45334e+08
-3.32357e+08
8.96223e+08
-2.33647e+08
8.20162e+08
-1.31512e+08
7.25125e+08
-3.36861e+07
6.28034e+08
4.9601e+07
5.48011e+08
1.20364e+08
4.85521e+08
1.93046e+08
4.18624e+08
2.80569e+08
3.26383e+08
3.76939e+08
2.01009e+08
4.67036e+08
4.40322e+07
5.3859e+08
-1.40965e+08
5.85671e+08
-3.52062e+08
6.1059e+08
-6.11085e+08
6.44036e+08
-9.29574e+08
7.34919e+08
-1.25153e+09
8.52678e+08
-1.48298e+09
9.34578e+08
-1.60164e+09
9.81736e+08
-1.62143e+09
1.01218e+09
-1.56693e+09
1.03108e+09
-1.46896e+09
1.04646e+09
-1.33984e+09
1.07452e+09
-1.18523e+09
1.13152e+09
-1.00043e+09
1.2114e+09
-7.78075e+08
1.33005e+09
-5.57474e+08
1.57367e+09
-4.85454e+08
1.97769e+09
1.42223e+08
1.0627e+08
-393133
9.11944e+07
1.26963e+08
965528
-2.04468e+08
1.2783e+08
899693
-2.46273e+08
1.29001e+08
467434
-2.0672e+08
1.36022e+08
-416881
-1.6109e+08
1.47157e+08
-1.60424e+06
-1.21694e+08
1.6024e+08
-2.87755e+06
-8.65279e+07
1.73945e+08
-3.91573e+06
-5.49499e+07
1.88908e+08
-4.51308e+06
-2.89552e+07
2.10551e+08
-4.93917e+06
-1.38596e+07
2.40667e+08
-4.95158e+06
-520969
2.74638e+08
-3.83421e+06
4.41522e+07
2.99866e+08
-2.62723e+06
8.40918e+07
3.23791e+08
-1.11316e+06
9.43574e+07
3.54676e+08
95960.4
1.06516e+08
3.93049e+08
1.40192e+06
1.21416e+08
4.34165e+08
2.04352e+06
1.32537e+08
4.76432e+08
1.999e+06
1.3443e+08
5.19746e+08
3.69e+06
1.15168e+08
5.59964e+08
1.14244e+07
7.03638e+07
5.76072e+08
3.86336e+07
1.71638e+07
5.76486e+08
6.86162e+07
-3.93038e+07
6.43957e+08
4.07227e+07
-2.60983e+08
7.53132e+08
-1.10815e+07
-4.20885e+08
8.30868e+08
-3.4398e+07
-4.30576e+08
8.53552e+08
-3.60153e+07
-3.41465e+08
8.05919e+08
-2.97335e+07
-1.49103e+08
7.13301e+08
-3.14843e+07
6.84339e+07
6.73392e+08
-4.42748e+07
1.62865e+08
6.67779e+08
-5.49384e+07
2.08816e+08
6.4192e+08
-4.9804e+07
2.83586e+08
5.81067e+08
-3.2261e+07
3.60328e+08
4.8012e+08
-1.4847e+06
4.24584e+08
3.55963e+08
2.04458e+07
4.88604e+08
2.25678e+08
2.06173e+07
5.67881e+08
8.23972e+07
1.70395e+07
6.50625e+08
-9.25021e+07
2.1186e+07
7.23553e+08
-3.06601e+08
2.85997e+07
7.7768e+08
-5.68286e+08
3.72181e+07
8.2627e+08
-8.63542e+08
3.81015e+07
8.8446e+08
-1.12905e+09
2.56303e+07
9.43547e+08
-1.31663e+09
1.36351e+07
9.73461e+08
-1.42402e+09
7.30773e+06
9.7051e+08
-1.46778e+09
5.66529e+06
9.55079e+08
-1.46571e+09
3.04147e+06
9.45952e+08
-1.42856e+09
646688
9.39678e+08
-1.35534e+09
-1.08461e+06
9.29529e+08
-1.23785e+09
-708880
9.24535e+08
-1.07974e+09
3.81254e+06
9.45006e+08
-8.78569e+08
6.43037e+06
9.91395e+08
-5.98589e+08
5.65525e+06
1.04798e+09
-2.70826e+08
-4.83503e+06
1.26432e+09
-1.39324e+08
-4.37576e+07
1.91989e+09
-1.25052e+07
1.97346e+08
1.29862e+08
8.61482e+07
1.53406e+08
-2.21145e+08
1.57651e+08
-2.75516e+08
1.60342e+08
-2.41694e+08
1.66602e+08
-2.00469e+08
1.74737e+08
-1.65949e+08
1.83138e+08
-1.36346e+08
1.91746e+08
-1.10502e+08
2.02648e+08
-8.9166e+07
2.2182e+08
-7.50144e+07
2.51125e+08
-5.04634e+07
2.83178e+08
5.86016e+06
3.06354e+08
4.91576e+07
3.29551e+08
6.17655e+07
3.60562e+08
7.67201e+07
3.98407e+08
9.3805e+07
4.37179e+08
1.07894e+08
4.76539e+08
1.11845e+08
5.17957e+08
9.6867e+07
5.70303e+08
5.91846e+07
6.50684e+08
1.12712e+07
7.47118e+08
1.89084e+07
8.44895e+08
-1.11641e+08
9.20134e+08
-3.31262e+08
9.47327e+08
-4.33067e+08
9.29851e+08
-4.10942e+08
8.77512e+08
-3.0211e+08
7.94587e+08
-1.73561e+08
6.81532e+08
-5.31723e+07
5.50984e+08
5.17155e+07
4.22586e+08
1.37434e+08
3.09846e+08
2.09735e+08
2.25592e+08
2.84169e+08
1.619e+08
3.72413e+08
8.56279e+07
4.78289e+08
-1.75696e+07
5.87998e+08
-1.59128e+08
6.99567e+08
-3.48945e+08
8.02315e+08
-5.81745e+08
8.81432e+08
-8.53202e+08
9.56276e+08
-1.11812e+09
1.0276e+09
-1.30985e+09
1.05913e+09
-1.41763e+09
1.05063e+09
-1.45688e+09
1.02789e+09
-1.45191e+09
1.01122e+09
-1.4155e+09
9.95402e+08
-1.34288e+09
9.74069e+08
-1.22225e+09
9.58102e+08
-1.06118e+09
9.86367e+08
-8.51839e+08
1.03351e+09
-5.67132e+08
1.09383e+09
-2.60165e+08
1.31886e+09
-1.93535e+08
1.92374e+09
1.74599e+08
9.2451e+07
1.37781e+06
1.03455e+07
1.13775e+08
1.95548e+06
-2.17417e+08
1.13612e+08
1.76063e+06
-2.38353e+08
1.14939e+08
1.32655e+06
-1.98508e+08
1.22453e+08
225458
-1.56082e+08
1.34299e+08
-1.28674e+06
-1.17515e+08
1.48535e+08
-2.99704e+06
-8.09238e+07
1.63534e+08
-4.53753e+06
-4.63028e+07
1.78304e+08
-5.5098e+06
-1.64776e+07
1.9381e+08
-5.87202e+06
1.44523e+06
2.19551e+08
-6.89003e+06
7.66759e+06
2.5776e+08
-5.9327e+06
3.4752e+07
2.89277e+08
-4.91659e+06
8.09189e+07
3.1575e+08
-3.46446e+06
9.70961e+07
3.48543e+08
-1.94891e+06
1.03889e+08
3.88972e+08
-189030
1.13987e+08
4.31994e+08
1.04818e+06
1.22176e+08
4.7551e+08
2.165e+06
1.2366e+08
5.15176e+08
5.84208e+06
1.0426e+08
5.43227e+08
1.95275e+07
5.81164e+07
5.36612e+08
5.85278e+07
-378742
5.39426e+08
8.5572e+07
-9.82655e+07
6.27688e+08
2.92411e+07
-3.58662e+08
7.46113e+08
-3.28868e+07
-4.89984e+08
7.97929e+08
-4.80767e+07
-4.19434e+08
7.78637e+08
-3.48585e+07
-2.69115e+08
6.62937e+08
-1.74089e+07
1.13017e+07
5.72825e+08
-3.08035e+07
2.24272e+08
5.89596e+08
-6.38798e+07
2.40743e+08
6.32008e+08
-7.70989e+07
2.67451e+08
6.57517e+08
-7.3403e+07
3.49904e+08
6.47047e+08
-6.02316e+07
4.4689e+08
5.83915e+08
-3.03943e+07
5.33298e+08
4.64289e+08
1.74117e+06
6.22812e+08
2.80877e+08
-7.54618e+06
7.72076e+08
6.9911e+07
-2.34293e+07
8.93198e+08
-1.3928e+08
-5.4058e+06
9.43418e+08
-3.78945e+08
3.02595e+07
9.91659e+08
-6.48352e+08
4.7094e+07
1.05372e+09
-9.00984e+08
3.53048e+07
1.10744e+09
-1.10439e+09
1.96372e+07
1.13184e+09
-1.26299e+09
1.13039e+07
1.12292e+09
-1.38795e+09
7.83997e+06
1.08752e+09
-1.48141e+09
6.85128e+06
1.03955e+09
-1.54358e+09
4.28007e+06
9.99424e+08
-1.57228e+09
668157
9.60712e+08
-1.55534e+09
-2.89321e+06
9.10388e+08
-1.47604e+09
-5.52864e+06
8.51236e+08
-1.34738e+09
2.79965e+06
8.26265e+08
-1.17876e+09
7.93579e+06
8.45629e+08
-8.83209e+08
4.33288e+06
7.98109e+08
-3.01069e+08
-1.12159e+07
7.68286e+08
3.67686e+08
-9.8905e+07
1.42697e+09
-3.30654e+07
2.65046e+08
1.18595e+08
-2.70388e+06
1.44846e+08
-2.38639e+08
1.49421e+08
-2.71708e+08
1.53373e+08
-2.36795e+08
1.60824e+08
-1.98983e+08
1.69585e+08
-1.6602e+08
1.77893e+08
-1.36326e+08
1.85348e+08
-1.09696e+08
1.93309e+08
-8.80709e+07
2.05196e+08
-7.60806e+07
2.30584e+08
-6.49933e+07
2.68132e+08
-2.16783e+07
2.97207e+08
3.16401e+07
3.22327e+08
5.14121e+07
3.55024e+08
6.22717e+07
3.95126e+08
7.59784e+07
4.36801e+08
8.98955e+07
4.78619e+08
9.43871e+07
5.2139e+08
8.16553e+07
5.75298e+08
4.52852e+07
6.66662e+08
-3.17086e+06
7.7555e+08
1.14254e+07
8.70793e+08
-1.66304e+08
9.25986e+08
-4.09675e+08
9.14892e+08
-4.61118e+08
8.6534e+08
-3.86798e+08
7.91371e+08
-2.34043e+08
6.8659e+08
-8.54094e+07
5.53088e+08
3.30591e+07
4.14181e+08
1.31355e+08
2.82607e+08
2.14436e+08
1.52172e+08
2.99779e+08
4.23238e+07
3.84861e+08
-3.02445e+07
4.65402e+08
-1.09355e+08
5.65129e+08
-2.11506e+08
6.78507e+08
-3.31476e+08
8.22745e+08
-4.95081e+08
1.00455e+09
-7.00133e+08
1.1428e+09
-9.11535e+08
1.21134e+09
-1.09144e+09
1.23316e+09
-1.23342e+09
1.21603e+09
-1.34599e+09
1.17246e+09
-1.43089e+09
1.11887e+09
-1.49033e+09
1.07209e+09
-1.52111e+09
1.02327e+09
-1.50594e+09
9.5363e+08
-1.41293e+09
8.62196e+08
-1.27106e+09
8.5965e+08
-1.08237e+09
8.77725e+08
-7.66696e+08
8.21267e+08
-2.41197e+08
8.36501e+08
2.61325e+08
1.36504e+09
1.77773e+08
7.21769e+07
1.47397e+06
-6.46329e+07
9.33257e+07
2.54929e+06
-2.29913e+08
9.38214e+07
2.75804e+06
-2.30925e+08
9.71988e+07
2.34241e+06
-1.92339e+08
1.06498e+08
1.0419e+06
-1.52793e+08
1.20102e+08
-748058
-1.14825e+08
1.36686e+08
-2.90669e+06
-7.69724e+07
1.55031e+08
-5.06578e+06
-3.96619e+07
1.72851e+08
-6.63949e+06
-5.28064e+06
1.8695e+08
-7.15897e+06
1.99374e+07
2.04907e+08
-7.82694e+06
2.58794e+07
2.40457e+08
-7.55802e+06
3.26938e+07
2.77164e+08
-7.10316e+06
7.51188e+07
3.05771e+08
-6.28151e+06
1.00143e+08
3.37369e+08
-4.54795e+06
1.04324e+08
3.76029e+08
-2.29081e+06
1.08554e+08
4.18421e+08
-76169.4
1.12409e+08
4.60495e+08
2.10696e+06
1.13134e+08
4.97397e+08
8.77422e+06
9.34194e+07
5.13888e+08
3.04757e+07
4.84134e+07
4.80887e+08
8.21596e+07
-1.25411e+07
4.91413e+08
9.64808e+07
-1.71627e+08
5.9942e+08
5.26192e+06
-4.5044e+08
7.24928e+08
-5.8667e+07
-5.3823e+08
7.34041e+08
-5.59692e+07
-3.55062e+08
6.45678e+08
-1.20484e+07
-1.42579e+08
4.5413e+08
1.71094e+07
2.35481e+08
3.76576e+08
-2.53558e+07
3.86856e+08
4.02827e+08
-8.72148e+07
3.51461e+08
4.58387e+08
-1.05254e+08
3.54848e+08
5.16072e+08
-9.54014e+07
4.18258e+08
5.61289e+08
-6.67189e+07
4.95093e+08
5.97304e+08
-2.75688e+07
5.48989e+08
6.54297e+08
-1.18689e+07
5.97104e+08
6.97626e+08
-5.96393e+07
8.0487e+08
5.99845e+08
-9.26931e+07
1.09576e+09
3.47271e+08
-1.75936e+07
1.2201e+09
-2.86361e+07
6.23101e+07
1.30952e+09
-4.22363e+08
6.26292e+07
1.38922e+09
-7.43941e+08
2.84206e+07
1.40518e+09
-1.01199e+09
1.04859e+07
1.39315e+09
-1.25801e+09
5.03087e+06
1.36578e+09
-1.49838e+09
6.7073e+06
1.32018e+09
-1.73154e+09
1.17004e+07
1.25541e+09
-1.95344e+09
1.37189e+07
1.19686e+09
-2.16344e+09
1.25933e+07
1.14398e+09
-2.35395e+09
8.94706e+06
1.07626e+09
-2.52411e+09
1.65137e+06
1.00649e+09
-2.74708e+09
2.90547e+07
1.01527e+09
-2.81055e+09
4.43105e+07
8.71617e+08
-2.28646e+09
-1.26557e+07
3.07417e+08
-1.1466e+09
-4.03066e+07
-2.89745e+08
7.29791e+08
-2.2213e+08
-1.91428e+08
-9.78873e+07
-8.94275e+07
1.04109e+08
-7.90592e+07
1.30391e+08
-2.54475e+08
1.36682e+08
-2.67704e+08
1.43883e+08
-2.33353e+08
1.54038e+08
-1.98743e+08
1.64707e+08
-1.66936e+08
1.74161e+08
-1.36939e+08
1.81919e+08
-1.09411e+08
1.8838e+08
-8.65869e+07
1.9463e+08
-7.29867e+07
2.11189e+08
-7.12858e+07
2.48931e+08
-4.94522e+07
2.85161e+08
5.03898e+06
3.12318e+08
3.58066e+07
3.43916e+08
4.55253e+07
3.83347e+08
5.52995e+07
4.25065e+08
6.92617e+07
4.67812e+08
7.49014e+07
5.14764e+08
6.47865e+07
5.7715e+08
3.38187e+07
6.83105e+08
-6.71943e+06
7.93799e+08
1.49029e+07
8.74686e+08
-2.29182e+08
9.05456e+08
-4.87636e+08
8.50814e+08
-4.51712e+08
7.8711e+08
-3.22079e+08
7.1991e+08
-1.31809e+08
6.05362e+08
2.70646e+07
4.45736e+08
1.34485e+08
2.90015e+08
2.1586e+08
1.85071e+08
2.59873e+08
1.7173e+08
2.81694e+08
2.45261e+08
3.14899e+08
3.02727e+08
4.22588e+08
1.95291e+08
6.35739e+08
-6.80762e+07
8.70927e+08
-3.1702e+08
1.07344e+09
-4.96375e+08
1.26271e+09
-6.5857e+08
1.38068e+09
-8.26315e+08
1.41752e+09
-9.98142e+08
1.42238e+09
-1.17474e+09
1.40054e+09
-1.34963e+09
1.3518e+09
-1.50882e+09
1.2822e+09
-1.64789e+09
1.21235e+09
-1.76951e+09
1.14149e+09
-1.86443e+09
1.04108e+09
-1.88613e+09
8.72263e+08
-1.91762e+09
9.13631e+08
-1.96427e+09
9.71128e+08
-1.58557e+09