/*--------------------------------*- C++ -*----------------------------------*\
| =========                 |                                                 |
| \\      /  F ield         | OpenFOAM: The Open Source CFD Toolbox           |
|  \\    /   O peration     | Version:  4.1                                   |
|   \\  /    A nd           | Web:      www.OpenFOAM.org                      |
|    \\/     M anipulation  |                                                 |
\*---------------------------------------------------------------------------*/
FoamFile
{
    version     2.0;
    format      ascii;
    class       volVectorField;
    location    "5";
    object      U;
}
// * * * * * * * * * * * * * * * * * * * * * * * * * * * * * * * * * * * * * //

dimensions      [0 1 -1 0 0 0 0];

internalField   nonuniform List<vector> 
4432
(
(-310.57 -0.979408 12.116)
(-537.4 -1.47942 -223.038)
(-445.255 -5.91096 -391.831)
(-46.1649 -13.5239 -495.452)
(365.944 -17.6358 -488.2)
(683.608 -19.6967 -451.911)
(940.476 -20.9615 -402.519)
(1142.95 -21.1289 -359.894)
(1300.87 -16.4412 -323.693)
(1405.51 -9.26056 -262.755)
(1441.85 -8.72297 -185.119)
(1442.53 -13.0213 -140.176)
(1440.29 -12.2012 -152.801)
(1514.42 -4.25636 -167.646)
(1583.65 -1.29647 -146.839)
(1638.67 -0.168504 -111.198)
(1750.31 4.00592 -81.4854)
(1983.1 9.28898 -50.2971)
(2099.99 3.12349 124.212)
(2075.5 -5.4256 337.482)
(1970.26 -8.6013 456.441)
(1862.09 -2.38457 482.435)
(1802.79 7.17066 447.399)
(1823.97 11.4418 374.996)
(1981.49 6.41988 295.449)
(2256.33 -7.77731 283.293)
(2588.28 -23.9221 270.412)
(2965.34 -23.2619 170.792)
(3415.63 -13.2959 72.2311)
(3827.53 -13.6683 63.915)
(4137.34 -20.3159 99.2711)
(4358.63 -20.919 120.329)
(4492.74 -11.3561 127.528)
(4553.92 -3.8063 130.435)
(4555.2 -12.7076 142.149)
(4496.9 -16.8779 155.533)
(4368.48 -1.21032 163.636)
(4187.3 21.1858 170.546)
(3924.94 17.0991 183.465)
(3670.44 5.49616 201.555)
(3372.15 28.7242 230.089)
(2925.87 36.3444 274.273)
(2459.4 5.68636 331.909)
(1879.9 -9.88341 389.749)
(1232.22 1.52279 446.418)
(414.503 10.0269 525.478)
(-606.094 5.16888 644.93)
(-1957.55 -0.23326 798.269)
(-3718.66 -3.39557 971.763)
(-5922.63 -9.50269 1177.83)
(-8438.29 3.38602 1472.15)
(-11543.6 60.8921 1903.52)
(-15725.1 151.131 2198.72)
(-20988 90.2467 1284.71)
(-280.584 1.54294 17.5187)
(-517.043 1.39577 -226.729)
(-418.231 -3.45523 -428.669)
(-16.425 -10.8225 -544.379)
(393.307 -14.7089 -538.49)
(707.245 -16.5195 -500.767)
(961.116 -17.5732 -447.456)
(1155.31 -17.504 -403.907)
(1307.15 -12.7923 -372.839)
(1436.54 -6.05887 -310.945)
(1491.94 -5.31123 -225.096)
(1500.86 -8.8106 -174.718)
(1477.12 -7.75592 -191.183)
(1560.51 0.219373 -207.58)
(1643.97 3.65676 -178.998)
(1703.05 6.78266 -137.661)
(1836.88 13.8731 -106.886)
(2100.41 21.7516 -60.7329)
(2208.59 14.9519 144.507)
(2137.19 4.58222 365.496)
(1979.57 -0.376084 476.29)
(1845.7 4.62072 489.713)
(1789.85 15.3628 451.963)
(1836.14 24.8191 378.412)
(2025.01 25.5485 291.638)
(2320.18 13.3004 277.618)
(2638.31 -5.54813 260.111)
(2985.38 -10.1475 139.95)
(3447.37 -4.51236 20.1408)
(3889.68 -6.99995 6.37409)
(4213.62 -14.5403 41.2934)
(4432.32 -15.2536 63.0178)
(4577.78 -6.22688 77.7012)
(4700.46 0.554929 83.1759)
(4772.11 -7.55666 87.4735)
(4716.56 -10.7555 97.7322)
(4640.93 4.06286 104.534)
(4564.59 22.9037 118.975)
(4478.36 18.9662 139.745)
(4243.95 10.0111 161.927)
(4012.46 28.3486 194.361)
(3759.77 34.6285 241.893)
(3364.93 10.9926 302.199)
(2761.07 -3.80518 354.037)
(2136.43 4.73352 398.355)
(1415.95 12.1987 468.773)
(504.26 7.7285 580.328)
(-715.951 2.4963 714.942)
(-2257.94 -0.589055 864.192)
(-4161.47 -5.91738 1052.74)
(-6337.91 4.86858 1312.28)
(-8936.38 52.357 1650.64)
(-12049.7 116.004 1783.47)
(-15185.1 56.2808 979.211)
(-368.165 3.81766 618.957)
(-246.967 7.1311 125.015)
(14.3857 2.6728 -490.177)
(305.279 -1.62714 -530.505)
(558.524 -4.29168 -405.169)
(766.757 -5.69197 -290.714)
(947.395 -6.28331 -201.171)
(1109.08 -5.5071 -127.78)
(1242.12 -2.67102 -57.9558)
(1378.08 0.00429613 2.82522)
(1492.1 -1.54108 87.0187)
(1540.48 -2.6401 166.95)
(1577.81 0.602913 165.531)
(1646.16 5.123 179.522)
(1711.46 6.75683 222.973)
(1775.62 5.89612 262.922)
(1895.78 8.07298 287.495)
(1929.33 5.6748 417.581)
(1878.22 -1.40252 550.748)
(1877.79 -5.95332 576.34)
(1911.42 -1.03833 500.14)
(1961.37 16.7241 378.827)
(2002.35 33.0155 222.599)
(2085.25 26.7728 24.5072)
(2279.55 5.86183 -163.568)
(2617.19 -10.7133 -281.819)
(3050.43 -18.7313 -332.165)
(3443.13 -18.9638 -382.32)
(3730.69 -13.6358 -382.981)
(3919.67 -9.44384 -266.543)
(4040.11 -8.10061 -107.328)
(4094.64 -7.51738 23.288)
(4077.84 -6.08616 121.905)
(3990.37 -6.38385 200.203)
(3908.29 -7.66898 277.109)
(3843.82 -6.19951 339.065)
(3789.24 -0.451893 374.479)
(3751.17 8.49091 402.427)
(3721.72 11.9266 433.487)
(3698.32 12.7165 468.814)
(3666.82 21.1806 537.379)
(3576.27 25.6478 644.388)
(3412.15 19.0371 778.841)
(3130.37 14.6433 910.168)
(2713.78 16.3654 1028.91)
(2111.59 17.9148 1165.99)
(1317.34 14.4766 1345.28)
(301.621 8.57382 1571.13)
(-956.276 2.84619 1820.98)
(-2526.28 1.13973 2080.51)
(-4322.79 6.81028 2366.87)
(-6190.2 24.2003 2621.1)
(-7877.43 47.641 2471.54)
(-9751.84 16.5976 1338.64)
(-339.18 5.80262 610.424)
(-203.916 8.79724 129.418)
(63.8454 4.26926 -537.371)
(347.282 -0.0751462 -594.969)
(591.722 -2.78343 -474.712)
(791.84 -4.19929 -359.757)
(965.974 -4.78584 -265.267)
(1121.28 -4.03685 -187.515)
(1249.07 -1.27802 -116.155)
(1375.84 1.94781 -33.893)
(1493.6 1.25391 56.0596)
(1537.85 1.39951 144.486)
(1571.62 4.47714 136.572)
(1644.59 9.52317 158.234)
(1718.53 12.3888 208.782)
(1797.37 13.6132 250.47)
(1926.51 17.3831 277.75)
(1934.53 13.0746 414.021)
(1874.58 5.08533 539.576)
(1857.23 -0.132537 558.215)
(1871.08 4.03289 479.905)
(1919.95 21.4615 362.907)
(2016.54 45.9034 230.296)
(2181.47 56.5123 51.2926)
(2426.02 45.9185 -140.253)
(2773.06 23.378 -271.807)
(3197.34 -1.75596 -344.293)
(3563.3 -19.2054 -430.751)
(3818.46 -24.1758 -464.07)
(3989.43 -23.6764 -362.713)
(4105.02 -22.5137 -205.256)
(4160.21 -20.908 -77.6947)
(4145.53 -18.1396 11.5803)
(4066.6 -16.9378 83.9256)
(3943.66 -16.6236 169.886)
(3859.44 -13.5091 250.724)
(3776.78 -6.70707 282.941)
(3733.06 3.0295 301.718)
(3744.58 7.70449 352.006)
(3760.55 9.68707 411.549)
(3774.9 18.4721 465.753)
(3777.7 23.9232 574.032)
(3708.58 18.893 741.702)
(3490.25 15.427 887.346)
(3128.3 17.4942 994.933)
(2585.71 19.2536 1122.84)
(1864.55 16.2926 1300.22)
(924.248 10.9816 1521.46)
(-255.68 5.70166 1760.58)
(-1733.46 4.20443 2014.73)
(-3378.18 9.89667 2298.16)
(-5039.93 26.7026 2539.06)
(-6517.55 48.2995 2388.06)
(-8129.18 18.3271 1303.3)
(-313.943 1.26389 871.309)
(-21.5392 8.77167 -184.458)
(215.784 4.70323 -748.008)
(422.936 1.17987 -736.299)
(597.957 -1.1156 -587.185)
(745.151 -2.60405 -455.62)
(876.25 -3.47149 -352.599)
(999.764 -3.39843 -267.154)
(1112.93 -2.0114 -181.805)
(1209.81 -0.0282186 -82.9816)
(1303.38 0.613798 61.8564)
(1357.98 1.22359 184.971)
(1397.84 3.9614 193.291)
(1456.15 5.50704 216.97)
(1507.48 6.01517 302.795)
(1562.42 6.75277 384.241)
(1651.85 9.14604 463.946)
(1694.3 3.94184 569.351)
(1774.43 -0.046798 615.609)
(1881.74 -1.41051 574.673)
(2005.03 11.4178 454.305)
(2108.83 40.6069 320.362)
(2150.59 52.9796 117.369)
(2263.78 22.7132 -190.421)
(2545.53 -15.2948 -503.908)
(2945.08 -30.3121 -718.432)
(3363.95 -28.6534 -766.731)
(3701.95 -22.6832 -710.354)
(3905.25 -18.4915 -591.38)
(3986.02 -18.1503 -399.35)
(3985.2 -19.7253 -187.445)
(3908.96 -20.7864 -8.36612)
(3770.14 -18.9984 133.27)
(3581.68 -15.3893 241.08)
(3337.22 -11.2766 325.138)
(3045.52 -7.42863 376.909)
(2737.93 -3.02518 394.727)
(2433.99 2.12365 394.202)
(2166.73 6.44396 395.697)
(1948.57 9.34061 419.111)
(1788.39 15.0291 500.175)
(1655.41 22.0847 677.853)
(1484.42 26.9597 940.878)
(1206.64 32.8989 1224.77)
(733.703 37.4782 1517.96)
(-3.48876 44.65 1879.21)
(-1069.6 43.7799 2359.59)
(-2501 34.8275 2977.09)
(-4394.27 23.635 3773.76)
(-6805.48 23.0611 4805.37)
(-9692.8 53.4531 6105.82)
(-13224.6 132.101 7834)
(-18075.7 241.523 10105.1)
(-25888.1 163.416 7076.42)
(-300.904 2.86117 884.276)
(28.7621 10.3046 -182.29)
(270.215 6.3816 -797.972)
(474.296 2.73379 -811.009)
(642.473 0.298308 -672.928)
(781.372 -1.30086 -544.827)
(905.039 -2.22689 -439.095)
(1022.85 -2.19959 -347.54)
(1130.53 -0.882248 -255.224)
(1223.02 1.08846 -137.139)
(1313.11 2.01793 16.2795)
(1364.4 3.17044 142.596)
(1402.82 6.25582 146.259)
(1462.33 8.04709 170.929)
(1515.46 9.07096 266.125)
(1578.33 10.7881 351.055)
(1658.32 12.9765 434.669)
(1693.99 7.62373 539.178)
(1765.27 4.04282 580.799)
(1852.48 3.00988 545.129)
(1955.54 15.2558 431.752)
(2085.49 45.9595 312.599)
(2252.56 79.6534 162.944)
(2488.65 78.5963 -105.261)
(2810.55 43.5327 -431.905)
(3186.67 0.532109 -682.819)
(3563.05 -34.0944 -782.32)
(3860.79 -53.3406 -782.212)
(4033.95 -58.9805 -708.399)
(4095.42 -59.0862 -546.504)
(4082.84 -57.459 -350.657)
(4002.41 -54.6603 -173.728)
(3843.38 -49.3304 -25.6098)
(3630.77 -42.4666 92.1004)
(3369.42 -35.6783 182.499)
(3077.14 -29.229 246.017)
(2767.05 -22.2259 270.342)
(2457.28 -14.5005 273.61)
(2182.61 -7.76617 287.783)
(1966.51 -2.40748 326.125)
(1799.15 5.64902 411.719)
(1672.5 14.3603 593.398)
(1533.53 20.8075 873.388)
(1300.81 28.3002 1179.24)
(873.154 34.0884 1469.07)
(194.704 41.9968 1801.61)
(-800.419 42.2851 2253.41)
(-2153.07 35.0072 2860.18)
(-3965.86 25.2134 3654.06)
(-6249.35 25.0285 4665.6)
(-8873.25 53.8073 5877)
(-11897.7 125.506 7373.67)
(-15871.4 216.423 9171.17)
(-21835.3 135.204 6564.58)
(-144.096 28.1401 1427.78)
(160.537 10.6765 -454.933)
(354.144 5.6128 -916.373)
(497.317 2.61604 -838.059)
(607.126 0.672308 -653.904)
(705.12 -0.96518 -502.381)
(797.809 -2.38652 -386.364)
(889.28 -3.20187 -291.281)
(980.161 -2.92818 -199.258)
(1070.82 -1.79248 -98.1612)
(1186.86 -0.416771 49.3825)
(1258.51 0.799956 209.178)
(1301.16 3.32926 245.142)
(1362.2 4.93167 268.381)
(1433.67 4.85451 362.811)
(1515.66 5.99939 459.379)
(1615.6 6.28232 547.747)
(1714.07 3.25329 625.371)
(1844.2 0.404377 631.823)
(1986.86 2.6014 552.489)
(2146.52 25.3769 400.722)
(2255.57 66.4633 272.293)
(2272.43 61.4776 -12.4583)
(2445.28 -0.0728438 -454.115)
(2819.09 -45.1985 -846.405)
(3243.29 -49.2496 -1064.73)
(3597.01 -38.8709 -1025.41)
(3816.22 -31.2944 -827.395)
(3888.26 -31.4653 -567.823)
(3836.26 -37.4976 -261.211)
(3706.69 -45.944 34.9745)
(3581.89 -48.4716 271.701)
(3415.92 -39.8546 459.533)
(3185.44 -28.8325 621.647)
(2854.5 -22.1828 756.246)
(2451.07 -16.1063 836.873)
(1994.08 -8.68152 855.003)
(1499.65 -1.52279 822.312)
(1007.51 4.35254 759.311)
(546.326 8.60275 697.514)
(161.652 14.3789 679.251)
(-152.2 15.2527 752.724)
(-489.903 23.9857 997.925)
(-877.966 69.4649 1579.53)
(-1858.95 90.0397 2676.03)
(-3468.43 46.4616 3760.74)
(-5054.89 7.42082 4542.13)
(-6564.31 -3.0114 5210.25)
(-7919.89 -2.30042 5824.68)
(-8980.36 7.45411 6401.25)
(-9684.97 25.2178 7030.09)
(-9958.58 61.6193 7876.26)
(-11399 117.313 8889.59)
(-4248.97 25.2915 1074.1)
(-140.329 25.7296 1319.19)
(214.876 12.5721 -462.087)
(417.344 7.61986 -977.504)
(561.886 4.42914 -926.234)
(666.58 2.26032 -755.601)
(755.929 0.427898 -610.818)
(839.435 -1.09846 -495.663)
(923.252 -1.95099 -396.194)
(1007.76 -1.73025 -295.455)
(1093.54 -0.698093 -168.206)
(1205.25 0.735661 -5.2104)
(1271.82 2.18718 159.675)
(1310.88 4.92639 192.551)
(1371.88 6.72688 217.986)
(1445.55 6.95016 314.861)
(1530.21 8.61233 414.45)
(1622.6 8.45837 505.491)
(1714.66 5.99175 581.01)
(1831.23 3.76895 587.846)
(1954.04 6.66954 520.512)
(2100.56 28.5358 377.95)
(2282.27 75.2011 273.918)
(2509.24 111.86 91.8421)
(2816.35 86.2833 -300.929)
(3188.93 22.2135 -738.908)
(3546.49 -37.8093 -1029.56)
(3824.78 -77.9352 -1080.28)
(3986.14 -94.7382 -975.657)
(4028.46 -96.7068 -788.276)
(3970.27 -95.7398 -530.32)
(3847.35 -96.4287 -255.798)
(3667.7 -93.3834 -6.24059)
(3438.2 -80.5149 209.322)
(3193.35 -65.7861 395.524)
(2871.51 -55.8589 554.119)
(2468.22 -46.6592 661.976)
(2019.75 -36.0247 705.186)
(1534.25 -25.6563 695.934)
(1048.37 -16.5772 655.605)
(597.624 -9.10309 617.46)
(211.18 -0.148832 627.8)
(-104.098 3.68498 730.615)
(-414.892 14.7952 1002.94)
(-815.65 59.1381 1593.59)
(-1245.84 93.2937 2716.21)
(-2780.17 62.57 4158.37)
(-4659.75 16.0891 5042.7)
(-6365.92 3.71038 5677.26)
(-7798.39 3.57938 6225.11)
(-8842.29 12.8563 6739.74)
(-9496.79 30.755 7355.51)
(-9746.78 69.2702 8262.81)
(-11307.3 129.317 9363.97)
(-4265.87 29.3587 1178.6)
(186.585 23.9825 1324.85)
(296.459 9.26665 -666.196)
(468.98 5.82651 -1010.74)
(543.384 3.81028 -882.689)
(599.803 2.15965 -681.223)
(661.764 0.324031 -519.568)
(728.098 -1.69667 -394.255)
(797.307 -3.43751 -291.708)
(871.9 -4.40784 -199.67)
(945.295 -4.62056 -98.5454)
(1085.35 -2.91388 29.8934)
(1183.87 -1.62002 223.853)
(1237.76 0.828088 291.011)
(1304.83 2.73186 317.271)
(1389.45 3.83604 401.645)
(1491.94 5.13007 490.619)
(1617.74 4.55479 573.862)
(1760.38 2.67851 629.83)
(1925.72 1.1301 603.279)
(2091.76 8.3087 491.298)
(2275.63 44.293 313.073)
(2365.7 95.2406 188.838)
(2343.25 56.5552 -229.129)
(2595.08 -36.7617 -800.843)
(3026.46 -75.7703 -1206.52)
(3424.51 -63.7812 -1342.68)
(3685.2 -47.0846 -1152.4)
(3759 -40.9251 -790.571)
(3664.79 -49.9337 -388.323)
(3447.98 -69.2814 19.5568)
(3313.04 -85.001 324.838)
(3191.01 -78.268 562.742)
(2989.99 -55.2277 775.663)
(2708.64 -38.6437 992.092)
(2329.92 -32.6985 1198.02)
(1878.45 -24.6008 1341.86)
(1329.78 -12.4017 1403.58)
(703.021 -0.703045 1384.56)
(34.5946 9.17503 1300.25)
(-658.468 15.041 1171.63)
(-1362.99 30.659 1044.54)
(-2611.02 38.9241 1442.63)
(-3991.73 29.9539 2211.08)
(-5490.65 25.4575 2843.77)
(-6724.8 3.03798 3322.59)
(-7293.86 -35.2972 3677.17)
(-7397.1 -45.1339 3980.09)
(-7271.58 -42.394 4296.54)
(-6972.02 -33.973 4685.45)
(-6530.89 -25.7704 5172.79)
(-5924.65 -18.5751 5819.12)
(-5096.17 -17.998 6741.29)
(-5093.66 -36.0281 7905.83)
(-1650.3 -10.2854 745.913)
(228.948 26.6301 1429.18)
(365.972 11.7223 -685.702)
(546.689 8.25227 -1086.49)
(624.916 5.98063 -985.84)
(677.906 4.04734 -799.832)
(731.083 1.9476 -648.691)
(786.125 -0.231812 -529.6)
(844.531 -2.0211 -427.619)
(910.794 -3.00877 -328.814)
(978.365 -3.31564 -203.84)
(1113.52 -1.68485 -43.6686)
(1204.9 -0.360006 160.084)
(1253.24 2.19518 226.796)
(1320.1 4.26649 256.016)
(1405.43 5.59266 342.823)
(1507.32 7.19848 435.385)
(1628.62 6.39269 520.801)
(1761.7 5.09509 574.957)
(1911.49 4.29978 554.789)
(2062.25 12.1311 457.806)
(2246.62 46.9223 290.515)
(2476.37 111.694 211.128)
(2757.69 142.283 -31.3417)
(3115.91 81.1588 -570.553)
(3484.64 -9.84638 -1082.19)
(3767.3 -78.3705 -1339.62)
(3921.71 -115.355 -1287.72)
(3934.46 -122.351 -1070.07)
(3832.39 -117.87 -787.856)
(3635.17 -119.2 -462.908)
(3387.04 -125.49 -146.042)
(3099.46 -115.516 141.894)
(2852.14 -90.3392 409.875)
(2614.75 -73.0427 673.782)
(2274.21 -66.5586 924.601)
(1835.94 -57.5838 1118.37)
(1316.07 -43.4984 1228.67)
(719.076 -29.301 1257.34)
(80.1868 -16.3982 1217.45)
(-569.918 -7.06483 1139.14)
(-1226.71 12.1093 1086.5)
(-2221.13 30.6591 1416.58)
(-3734.76 30.7601 2244.2)
(-5272 29.1281 2999.84)
(-6617.96 7.02154 3553.83)
(-7375.98 -33.9813 3922.35)
(-7445.42 -44.0973 4205.47)
(-7277.87 -41.0122 4491.14)
(-6950.93 -32.4956 4854.55)
(-6493.11 -24.5848 5333.42)
(-5882.19 -17.7951 5995.74)
(-5078.82 -17.7492 6959.42)
(-5196.32 -37.0281 8137.68)
(-1795.35 -10.9134 771.658)
(295.14 4.97341 777.399)
(374.713 7.8953 -762.011)
(520.729 6.47979 -1028.7)
(550.152 5.4627 -878.263)
(574.696 4.07169 -677.569)
(616.293 2.02281 -514.486)
(668.582 -0.547537 -382.497)
(725.77 -3.06681 -272.131)
(790.109 -4.91278 -179.87)
(845.804 -6.38188 -95.202)
(985.485 -5.76758 7.02007)
(1123.38 -4.44462 220.227)
(1193.7 -2.30733 319.345)
(1269.93 0.049538 349.335)
(1372.41 2.08409 425.728)
(1484.83 3.72024 506.358)
(1629.1 4.11516 566.138)
(1792.91 2.63104 594.852)
(1974.65 3.62284 540.914)
(2151.42 17.1069 405.631)
(2358.73 70.9921 217.48)
(2414.1 123.969 88.1801)
(2346.52 32.7616 -509.6)
(2696.06 -86.8316 -1171.61)
(3131.75 -105.97 -1507.53)
(3470.34 -75.9235 -1492.27)
(3626.84 -53.7432 -1110.03)
(3513.22 -50.612 -559.813)
(3182.08 -76.1774 4.22452)
(3018.83 -108.956 372.525)
(2959.98 -122.195 631.986)
(2768.63 -103.925 873.626)
(2486.1 -67.8678 1105.13)
(2122.47 -43.689 1367.07)
(1706.18 -39.3593 1640.2)
(1263.08 -31.73 1866.11)
(679.676 -13.7496 2006.19)
(-34.1441 5.25906 2046.67)
(-863.877 21.588 1999.88)
(-1831.25 34.802 2008.49)
(-3156.09 41.5216 2358.93)
(-4622.93 27.6736 2811.66)
(-5694.45 7.64105 3136.8)
(-6340.73 -2.84775 3389.49)
(-6563.8 -17.1623 3613.25)
(-6432.16 -26.5397 3808.41)
(-6095.48 -26.8839 3988.9)
(-5628.98 -23.0447 4198.38)
(-5059.58 -14.0698 4477.99)
(-4390.85 -4.71967 4848.49)
(-3603.24 -2.40457 5381.27)
(-2694.96 -12.6076 6319.7)
(-3161.07 -49.2822 7758.07)
(-368.078 -12.9335 570.178)
(366.89 7.84622 746.316)
(458.93 10.8973 -807.352)
(615.075 9.34108 -1121.72)
(651.507 8.05865 -996.748)
(674.902 6.37485 -812.329)
(707.942 4.03037 -663.47)
(746.452 1.26087 -544.042)
(788.272 -1.3471 -442.249)
(839.97 -3.21251 -350.536)
(888.578 -4.69789 -250.694)
(1023.63 -4.31114 -100.285)
(1152.44 -3.15341 132.491)
(1214.88 -1.0102 234.507)
(1289.68 1.46677 268.368)
(1392.52 3.71718 351.36)
(1504.35 5.58343 434.699)
(1644.24 5.94964 498.472)
(1796.84 4.97703 527.597)
(1962.64 6.71796 485.298)
(2134.22 20.5707 368.202)
(2364.02 72.9644 193.422)
(2655.12 155.878 152.711)
(2983.54 166.987 -180.119)
(3363.54 61.1607 -868.658)
(3661.93 -48.5665 -1398.1)
(3832.73 -112.63 -1561.77)
(3860.38 -133.369 -1379.14)
(3721.78 -121.414 -1047.36)
(3465.29 -110.258 -677.862)
(3108.42 -118.683 -298.895)
(2714.75 -124.396 42.7842)
(2307.68 -101.952 345.923)
(2035.11 -67.2895 643.359)
(1821.6 -52.9681 977.469)
(1521.06 -60.0139 1323.45)
(1111.63 -59.8179 1624.45)
(580.068 -44.6556 1838.79)
(-84.3594 -25.6902 1955.66)
(-853.209 -7.34401 1986.55)
(-1711.78 15.6231 1985.37)
(-3085.54 39.023 2366.87)
(-4478.59 27.6985 2956.8)
(-5705.83 9.03329 3350.85)
(-6352.96 -0.333802 3628.07)
(-6589.95 -14.701 3855.25)
(-6463.27 -24.3801 4040.66)
(-6105.33 -24.8389 4185.92)
(-5628.48 -21.2928 4361.61)
(-5051.12 -12.6773 4631.72)
(-4378.05 -3.76185 5001.11)
(-3582.19 -1.93259 5551.92)
(-2681.8 -12.7918 6521.32)
(-3258.87 -50.9631 7943.57)
(-528.459 -13.6833 579.895)
(256.414 5.61386 460.468)
(383.162 8.32888 -806.568)
(509.199 8.33637 -1008.4)
(519.571 7.82376 -849.022)
(532.365 6.3855 -658.448)
(567.359 4.00269 -498.421)
(616.177 0.85827 -360.559)
(671.559 -2.38978 -240.409)
(730.949 -5.10876 -142.395)
(781.441 -7.49217 -80.5468)
(879.428 -9.11249 -12.6156)
(1057.04 -8.01621 189.36)
(1158.12 -6.07207 331.3)
(1239.9 -3.14194 365.061)
(1357.23 -0.825431 425.375)
(1488.03 1.55101 494.324)
(1649.8 2.85508 543.204)
(1818.37 2.79204 553.183)
(1996.04 7.77981 477.051)
(2154.93 31.0372 307.58)
(2366.36 107.625 109.312)
(2355.57 144.439 -54.4238)
(2263.56 -17.97 -851.235)
(2735.27 -149.5 -1534.95)
(3118.84 -134.57 -1712.22)
(3393.82 -84.1617 -1497.51)
(3441.99 -54.0594 -893.255)
(3035.62 -64.7096 -128.81)
(2685.34 -110.271 398.378)
(2740.67 -152.172 635.021)
(2681.59 -170.147 915.779)
(2489.77 -166.481 1187.91)
(2153.67 -130.167 1426.99)
(1654.16 -92.8191 1700.9)
(1128.84 -76.2004 2063.39)
(665.409 -58.3912 2414.6)
(97.398 -26.947 2654.15)
(-667.785 9.59892 2782.18)
(-1574.2 42.3836 2893.72)
(-2785.62 52.7979 3124.44)
(-4095.64 35.9264 3377.02)
(-5085.77 14.7388 3549.84)
(-5640.86 0.996814 3620.14)
(-5902.85 -4.35249 3643.62)
(-5941.06 -11.1528 3682.17)
(-5829.78 -16.4546 3730.19)
(-5590.6 -18.6872 3770.04)
(-5193.66 -13.9386 3834.44)
(-4623.62 0.867429 3988.95)
(-3909.44 10.8903 4227.69)
(-2994.89 12.2413 4590.55)
(-1788.7 -8.54706 5580.28)
(-2144.98 -87.3439 7907.51)
(900.769 -24.4873 723.253)
(351.451 8.54954 460.029)
(482.424 11.7277 -866.17)
(622.574 11.6539 -1117.11)
(643.993 10.9363 -981.925)
(658.704 9.29161 -808.574)
(686.009 6.67872 -666.356)
(718.576 3.35588 -547.71)
(752.301 -0.0170384 -445.592)
(791.372 -2.80781 -359.272)
(829.093 -5.2215 -292.884)
(924.753 -7.18546 -172.659)
(1095.56 -6.45258 65.636)
(1185.96 -4.69573 214.765)
(1263.46 -1.749 255.41)
(1380.79 0.734388 325.231)
(1510.56 3.31545 400.202)
(1668.95 4.74604 457.784)
(1826.71 5.18949 473.123)
(1993.69 10.7449 411.295)
(2164.45 33.6811 266.391)
(2429.75 108.677 83.4918)
(2799.08 206.44 95.5106)
(3163.48 177.784 -352.258)
(3535.25 23.3048 -1177.98)
(3697.3 -89.5663 -1658.42)
(3751.5 -129.466 -1679.56)
(3675.8 -115.317 -1347.83)
(3393.74 -79.7463 -899.08)
(2988.06 -66.7086 -447.499)
(2485.65 -85.9551 -28.6622)
(1961.22 -88.0183 321.437)
(1446.79 -61.4672 617.694)
(980.832 -4.90753 919.631)
(756.41 20.2231 1285.47)
(504.562 -12.0366 1713.41)
(198.512 -39.2035 2130)
(-222.34 -33.8076 2492.18)
(-857.4 -11.3494 2777.24)
(-1670.57 26.6503 2986.28)
(-2733.46 55.2817 3303.04)
(-4076.63 40.8168 3637.07)
(-5061.19 18.1057 3839.74)
(-5648.56 4.32597 3906.97)
(-5875.22 -0.783147 3909.74)
(-5888.4 -7.77169 3922.14)
(-5773.86 -13.3923 3932.39)
(-5538.38 -16.084 3930.42)
(-5137.41 -11.9115 3964.26)
(-4560.87 2.38828 4118.93)
(-3823.75 11.8885 4364.63)
(-2876.54 12.7182 4745.59)
(-1692.89 -8.99813 5757.47)
(-2238.97 -90.9555 7948.58)
(677.656 -25.6534 674.002)
(191.67 9.53909 162.819)
(347.871 11.0291 -856.02)
(458.806 10.9427 -976.813)
(461.92 10.7448 -813.879)
(475.882 9.15852 -636.638)
(513.549 6.40463 -480.62)
(566.49 2.65193 -337.036)
(627.542 -1.4121 -204.486)
(690.418 -4.87337 -93.8061)
(748.241 -7.33035 -32.1427)
(781.05 -11.5057 -4.82652)
(967.967 -11.4706 143.581)
(1113.69 -10.0731 323.95)
(1204.28 -7.34592 373.625)
(1326.67 -4.31141 412.133)
(1467.32 -1.04119 463.707)
(1636.54 1.35242 504.339)
(1816.41 3.78797 511.877)
(1990.75 13.4768 433.32)
(2128.13 52.2109 243.88)
(2318.9 154.988 19.2755)
(2164.44 144.846 -260.022)
(2100.06 -98.9123 -1240.81)
(2708 -216.32 -1849.43)
(2975.53 -152.648 -1767.41)
(3206.09 -73.6316 -1327.23)
(3080.02 -30.7673 -437.217)
(2290.08 -83.0511 486.381)
(2310.86 -169.999 693.264)
(2510.59 -213.045 863.254)
(2641.02 -245.968 1189.42)
(2657.87 -271.103 1532.36)
(2524.43 -265.739 1809.23)
(2136.34 -247.058 2063.95)
(1471.15 -249.58 2375.8)
(713.541 -231.144 2739.27)
(-21.2109 -150.971 3075.83)
(-868.143 -40.7754 3381.59)
(-1904.02 25.6701 3733.65)
(-3127.61 25.4452 4003.47)
(-4151.84 10.2287 4147.56)
(-4875.84 -0.312056 4156.35)
(-5404.03 -5.13709 4058.82)
(-5824.22 -6.81546 3924.23)
(-6114.38 -12.6859 3828.56)
(-6274.36 -20.4622 3744.39)
(-6284.67 -26.0106 3629.9)
(-6065.73 -27.7085 3501.4)
(-5607.67 -2.33349 3445.14)
(-5023.27 15.7037 3586.55)
(-4198.74 8.5282 3741.22)
(-2610.79 -19.0054 4197.92)
(-1413.49 -193.164 6732.57)
(3291.27 -68.9338 783.811)
(294.669 13.0102 112.339)
(463.636 14.8321 -931.923)
(593.133 14.7425 -1102.21)
(612.982 14.4692 -960.681)
(632.609 12.8764 -801.281)
(664.208 10.1029 -666.232)
(698.688 6.33473 -547.749)
(730.486 2.20914 -442.94)
(761.216 -1.36193 -358.01)
(794.073 -3.95888 -309.293)
(827.137 -8.43142 -243.496)
(1013.96 -9.22695 -36.4088)
(1148.29 -8.37794 162.35)
(1231.82 -5.7976 222.984)
(1353.05 -2.68542 273.935)
(1490.83 0.765164 336.637)
(1663.01 3.37622 393.814)
(1832.57 6.16314 411.36)
(2009.84 16.0174 354.583)
(2185.79 52.6976 198.809)
(2471.52 154.264 -0.92167)
(2908.88 259.238 47.7227)
(3276.75 165.118 -552.047)
(3610.11 -31.1534 -1485.99)
(3572.78 -121.657 -1829.45)
(3546.73 -106.924 -1668.61)
(3411.34 -36.2056 -1156.19)
(3013.97 17.6492 -587.591)
(2506.4 -5.57314 -94.6129)
(1951.37 -45.7318 312.005)
(1411.76 -55.7507 638.07)
(901.711 -31.8139 938.48)
(287.091 41.0384 1273.7)
(-66.7871 110.533 1637.68)
(-270.947 33.7228 2077.98)
(-581.519 -74.8633 2560.63)
(-938.355 -80.5842 3096.85)
(-1470.69 -14.2624 3652.89)
(-2130.6 44.3749 4151.42)
(-3234.38 46.8073 4452.2)
(-4186.66 22.7599 4569.72)
(-4805.47 8.13914 4538.65)
(-5278.17 1.34816 4401.27)
(-5639.8 -1.32816 4237.81)
(-5902.5 -8.05109 4114.79)
(-6061.72 -16.6184 3996.5)
(-6083.37 -23.1667 3834.81)
(-5848.17 -25.9926 3639.66)
(-5333.33 -0.986155 3657.77)
(-4689.96 15.6703 3796.99)
(-3769.32 7.83235 3815.4)
(-2195.82 -23.2234 4299.54)
(-1509.83 -206.947 6444.18)
(2819.49 -71.9123 591.018)
(113.326 10.0963 -143.015)
(284.367 12.8897 -905.612)
(383.095 13.8846 -943.992)
(385.137 13.9882 -783.612)
(407.052 12.2334 -619.386)
(451.902 9.15513 -466.454)
(513.123 4.74761 -317.411)
(585.272 -0.332456 -173.148)
(661.613 -4.892 -44.9908)
(736.353 -7.77588 39.4576)
(753.391 -11.3262 64.6712)
(872.406 -13.532 129.201)
(1056.05 -14.278 309.894)
(1168.78 -12.8791 387.688)
(1281.22 -9.3051 404.908)
(1418.69 -4.96196 435.753)
(1582.4 -0.942984 463.203)
(1761.19 3.64557 469.179)
(1926.45 19.9445 392.268)
(2063.23 79.0056 210.159)
(2245.95 205.852 -27.1057)
(1873.71 108.448 -525.724)
(1903.55 -205.691 -1644.16)
(2611.49 -273.148 -2095.58)
(2705.14 -146.934 -1633.73)
(2920.21 -14.7367 -940.653)
(2337.59 39.3369 329.121)
(1438.13 -103.384 1165.48)
(1609.47 -252.648 1184.55)
(1786.78 -304.209 1268.73)
(2004.25 -337.555 1534.34)
(2177.25 -357.668 1810.52)
(2344.92 -357.42 2001.98)
(2471.5 -370.169 2337.14)
(2499.44 -414.571 3513.37)
(2871.83 -367.472 4553.08)
(2264.27 -135.772 4754.98)
(858.306 4.51794 4993.8)
(-883.73 21.7978 5221.71)
(-2444.72 -10.7555 5290.38)
(-3631.55 -26.201 5246.69)
(-4637.63 -25.1751 5114.13)
(-5564.19 -11.6588 4887.73)
(-6510.65 8.63615 4595.92)
(-7422.32 21.84 4337.31)
(-8261.37 28.9211 4086.38)
(-9047.46 29.8369 3766.56)
(-9673.32 23.5116 3450.42)
(-10278.5 117.194 3550.81)
(-11562.3 182.342 3389.31)
(-10906.3 65.5999 1795.59)
(-6692.6 7.05011 -192.07)
(-3403.66 -367.795 945.732)
(6925.57 -268.287 566.224)
(235.618 13.7779 -190.399)
(421.207 17.1316 -996.833)
(543.119 18.2075 -1084.41)
(567.268 18.4189 -942.346)
(599.127 16.965 -797.034)
(640.569 14.2613 -667.721)
(682.055 10.2549 -548.416)
(716.883 5.45393 -440.028)
(745.209 0.950018 -351.634)
(773.876 -2.11158 -302.198)
(774.278 -5.99947 -276.955)
(905.286 -9.89142 -141.338)
(1092.1 -11.663 80.7215)
(1195.46 -10.7278 175.442)
(1307.23 -7.25803 211.192)
(1443.41 -2.84439 260.076)
(1617.01 1.45758 317.474)
(1788.43 6.15849 338.518)
(1973.49 21.6986 293.856)
(2183.07 74.8759 157.886)
(2518.94 202.618 -27.7175)
(3017.54 301.62 37.3056)
(3317.14 119.185 -789.509)
(3570.46 -95.6392 -1802.05)
(3282.86 -128.289 -1883.79)
(3269.49 -15.8263 -1494.1)
(3161.07 115.494 -797.436)
(2738.3 147.023 -157.967)
(2137.02 54.2963 314.528)
(1470.08 -22.0808 694.801)
(928.309 -25.5481 970.224)
(607.231 41.7846 1173.27)
(751.281 127.426 1356.17)
(1126.02 126.91 1727.46)
(1155.17 -36.2745 2402.6)
(388.22 -178.619 3103.2)
(-715.81 -74.9172 3833.82)
(-1472.95 104.348 4737.71)
(-2130.64 115.432 5284.87)
(-3043.13 42.1533 5404.1)
(-3785.46 4.57708 5382.17)
(-4453.95 -6.92464 5254.63)
(-5125.43 -1.91297 5035.16)
(-5786.01 11.6198 4753.41)
(-6376.01 18.708 4473.21)
(-6865.65 19.7658 4159.27)
(-7294.54 14.9546 3697.68)
(-7448.53 2.942 2992.54)
(-7419.74 89.032 3024.83)
(-7888.72 137.199 3448.04)
(-7657.26 -24.0708 2367.75)
(-4565.33 -77.4936 632.217)
(-1857.34 -477.219 1055.7)
(5985.87 -231.919 223.349)
(36.4769 13.7201 -400.183)
(204.214 16.2784 -947.572)
(291.921 17.5523 -913.64)
(294.569 17.7362 -762.411)
(326.367 15.8759 -609.223)
(378.872 12.5976 -458.501)
(448.868 7.52073 -305.161)
(534.482 1.10533 -151.308)
(628.917 -5.31332 -4.31885)
(729.137 -9.83145 115.422)
(785.852 -10.2801 153.013)
(787.761 -12.9508 131.629)
(985.574 -15.1967 288.451)
(1140.76 -17.6922 409.605)
(1239.43 -15.5259 422.057)
(1350.32 -9.77967 425.911)
(1488.59 -3.14072 434.282)
(1652.97 3.8769 437.822)
(1795.23 30.2423 360.803)
(1932.53 115.865 184.245)
(2099.68 259.332 -51.9874)
(1503.38 28.0075 -834.756)
(1730.39 -323.322 -1979.85)
(2431.07 -300.684 -2230.06)
(2385.1 -99.6767 -1230.3)
(2480.03 152.395 -219.405)
(930.425 212.651 1550.88)
(350.396 -151.944 2012.82)
(557.144 -359.084 1729.87)
(1113.44 -346.571 1606.53)
(1427.69 -269.662 1897.15)
(1082.19 -121.565 2426.02)
(-56.3691 100.987 2979.4)
(-2282.25 230.177 3202.45)
(-4447.89 -33.0719 3249.55)
(-3704.33 -355.346 3957.51)
(-3173.05 -231.66 4755.52)
(-4270.33 -85.4775 5298.46)
(-5291.18 -117.803 5650.79)
(-6279.69 -173.74 5703.52)
(-6989.22 -200.941 5681.81)
(-7692.22 -194.65 5678.36)
(-8474.12 -163.927 5677.52)
(-9674.42 -113.282 5607.31)
(-11315.3 -82.663 5493.08)
(-13081.1 -80.3471 5368.89)
(-14993 -130.471 5206.23)
(-16752.2 -439.44 4885.34)
(-17640 -449.517 4123.95)
(-16042.5 332.116 2473.34)
(-13295 797.902 356.753)
(-11103.7 1038.29 -743.791)
(-15716.8 522.084 -1471.18)
(8285.38 -765.343 -1144.83)
(171.541 17.8109 -473.361)
(363.091 20.98 -1054.13)
(480.408 22.3876 -1067.64)
(511.757 22.9327 -931.658)
(558.853 21.7899 -798.699)
(612.129 19.4748 -673.268)
(662.906 15.5261 -552.421)
(704.378 10.1787 -440.103)
(733.441 4.52128 -344.863)
(758.283 0.257987 -282.615)
(754.02 -0.780286 -282.805)
(778.071 -5.28173 -252.467)
(997.635 -10.2871 -39.0416)
(1151.15 -14.0242 111.733)
(1251.9 -12.247 148.246)
(1367.92 -6.6536 178.453)
(1531.06 0.141444 236.668)
(1697.2 6.76803 265.568)
(1881.26 30.3816 233.219)
(2128.01 102.362 122.176)
(2538.12 251.988 -19.5478)
(3126.5 322.723 78.8456)
(3281.73 40.0054 -1052.39)
(3407.24 -151.731 -2105.23)
(2880.92 -84.7643 -1742.75)
(3021.06 170.002 -1107.6)
(3033.7 320.148 -254.248)
(2593.61 252.142 426.682)
(1758.83 45.5097 838.913)
(934.067 -105.636 1054.52)
(618.883 -39.8185 1120.89)
(576.833 204.254 1265.12)
(773.653 528.892 1611.2)
(669.594 702.756 2085.25)
(742.098 362.671 2626.77)
(1106.7 -93.8741 3269.97)
(1448.88 -67.0238 4309.41)
(1028.67 -131.084 5549.63)
(-0.842552 -325.237 6235.11)
(-1379.01 -393.403 6416.36)
(-2607.97 -382.784 6497.18)
(-3927.28 -325.845 6477.41)
(-5345.92 -232.235 6276.65)
(-6876.01 -119.86 5920.64)
(-8437.93 -37.812 5580.78)
(-10113.7 15.6889 5351.76)
(-12214.1 28.2066 5210.37)
(-14305 -232.968 5059.15)
(-19046.3 -267.833 4932.41)
(-19836.6 592.578 3363.88)
(-12683.2 1295.39 436.942)
(-8474.41 1310.61 -674.786)
(-6648.53 239.551 -1861.87)
(7867.73 -631.621 -1512.66)
(-43.4481 14.4926 -623.499)
(110.064 19.1639 -978.533)
(188.583 21.3817 -890.267)
(191.728 21.6445 -751.946)
(231.778 20.0038 -606.748)
(289.266 16.8764 -458.031)
(365.611 11.4241 -302.717)